 Title="Shock-Particle Simulation"
 Variables = Xp, Yp, Up, Vp, Tp, Time, Onoff
 Zone T="WENO Step=    9 Time=     4.1780E-03 " I=      60
 AUXDATA Scheme = "WENO"       
 AUXDATA Step   = "    9"
 AUXDATA Time   = "    4.1780E-03"
 AUXDATA N      = "      60"
         0.1865603050        -0.0440058707         5.6016958767        -0.0082075753       334.6083174604         0.0041780000 1
         0.1865569372        -0.0409709863         5.5989838688        -0.0077708145       334.6084375253         0.0041780000 1
         0.1865538105        -0.0379361024         5.5964663790        -0.0073341197       334.6085488910         0.0041780000 1
         0.1865509250        -0.0349012189         5.5941432118        -0.0068974469       334.6086515848         0.0041780000 1
         0.1865482805        -0.0318663358         5.5920141867        -0.0064607520       334.6087456321         0.0041780000 1
         0.1865458767        -0.0288314531         5.5900791382        -0.0060239906       334.6088310559         0.0041780000 1
         0.1865437137        -0.0257965707         5.5883379154        -0.0055871184       334.6089078775         0.0041780000 1
         0.1865417913        -0.0227616887         5.5867903826        -0.0051500910       334.6089761157         0.0041780000 1
         0.1865401094        -0.0197268069         5.5854364190        -0.0047128638       334.6090357875         0.0041780000 1
         0.1865386679        -0.0166919253         5.5842759192        -0.0042753921       334.6090869075         0.0041780000 1
         0.1865374667        -0.0136570439         5.5833087926        -0.0038376311       334.6091294885         0.0041780000 1
         0.1865365059        -0.0106221627         5.5825349639        -0.0033995359       334.6091635411         0.0041780000 1
         0.1865357853        -0.0075872816         5.5819543730        -0.0029610616       334.6091890735         0.0041780000 1
         0.1865353049        -0.0045524006         5.5815669751        -0.0025221628       334.6092060923         0.0041780000 1
         0.1865350648        -0.0015175196         5.5813727405        -0.0020827944       334.6092146016         0.0041780000 1
         0.1865350648         0.0015173947         5.5813716571        -0.0016343375       334.6092146036         0.0041780000 1
         0.1865353049         0.0045522756         5.5815637227        -0.0011938964       334.6092060981         0.0041780000 1
         0.1865357853         0.0075871566         5.5819489546        -0.0007528520       334.6091890832         0.0041780000 1
         0.1865365059         0.0106220377         5.5825273840        -0.0003111584       334.6091635546         0.0041780000 1
         0.1865374667         0.0136569188         5.5832990579         0.0001312303       334.6091295060         0.0041780000 1
         0.1865386678         0.0166918002         5.5842640381         0.0005743605       334.6090869291         0.0041780000 1
         0.1865401093         0.0197266817         5.5854224017         0.0010182783       334.6090358133         0.0041780000 1
         0.1865417912         0.0227615634         5.5867742413         0.0014630304       334.6089761460         0.0041780000 1
         0.1865437136         0.0257964454         5.5883196642         0.0019086634       334.6089079123         0.0041780000 1
         0.1865458766         0.0288313277         5.5900587931         0.0023552242       334.6088310956         0.0041780000 1
         0.1865482803         0.0318662103         5.5919917656         0.0028027598       334.6087456768         0.0041780000 1
         0.1865509248         0.0349010932         5.5941187345         0.0032513175       334.6086516348         0.0041780000 1
         0.1865538103         0.0379359766         5.5964398674         0.0037009448       334.6085489466         0.0041780000 1
         0.1865569369         0.0409708603         5.5989553467         0.0041516892       334.6084375868         0.0041780000 1
         0.1865603048         0.0440057446         5.6016653697         0.0046035986       334.6083175281         0.0041780000 1
         0.3559628590        -0.0440023658         1.7853791361        -0.0039002058         3.2804955267         0.0041780000 1
         0.3559613258        -0.0409677138         1.7839939387        -0.0036971366         3.2804116575         0.0041780000 1
         0.3559599031        -0.0379330620         1.7827087205        -0.0034941608         3.2803336600         0.0041780000 1
         0.3559585907        -0.0348984106         1.7815232436        -0.0032912520         3.2802615596         0.0041780000 1
         0.3559573883        -0.0318637594         1.7804372878        -0.0030883838         3.2801953800         0.0041780000 1
         0.3559562958        -0.0288291085         1.7794506513        -0.0028855299         3.2801351427         0.0041780000 1
         0.3559553131        -0.0257944578         1.7785631506        -0.0026826641         3.2800808674         0.0041780000 1
         0.3559544399        -0.0227598073         1.7777746204        -0.0024797599         3.2800325718         0.0041780000 1
         0.3559536761        -0.0197251570         1.7770849138        -0.0022767911         3.2799902716         0.0041780000 1
         0.3559530217        -0.0166905068         1.7764939021        -0.0020737312         3.2799539806         0.0041780000 1
         0.3559524765        -0.0136558569         1.7760014752        -0.0018705540         3.2799237107         0.0041780000 1
         0.3559520405        -0.0106212070         1.7756075412        -0.0016672329         3.2798994717         0.0041780000 1
         0.3559517135        -0.0075865573         1.7753120268        -0.0014637414         3.2798812716         0.0041780000 1
         0.3559514955        -0.0045519077         1.7751148769        -0.0012600531         3.2798691162         0.0041780000 1
         0.3559513866        -0.0015172581         1.7750160550        -0.0010561413         3.2798630097         0.0041780000 1
         0.3559513866         0.0015173914         1.7750155431        -0.0008519794         3.2798629540         0.0041780000 1
         0.3559514955         0.0045520409         1.7751133415        -0.0006475407         3.2798689492         0.0041780000 1
         0.3559517135         0.0075866904         1.7753094691        -0.0004427983         3.2798809935         0.0041780000 1
         0.3559520405         0.0106213399         1.7756039631        -0.0002377253         3.2798990829         0.0041780000 1
         0.3559524765         0.0136559894         1.7759968794        -0.0000322946         3.2799232116         0.0041780000 1
         0.3559530217         0.0166906390         1.7764882919         0.0001735208         3.2799533720         0.0041780000 1
         0.3559536761         0.0197252886         1.7770782935         0.0003797482         3.2799895542         0.0041780000 1
         0.3559544398         0.0227599383         1.7777669949         0.0005864151         3.2800317466         0.0041780000 1
         0.3559553130         0.0257945882         1.7785545257         0.0007935489         3.2800799356         0.0041780000 1
         0.3559562958         0.0288292381         1.7794410335         0.0010011773         3.2801341054         0.0041780000 1
         0.3559573882         0.0318638883         1.7804266845         0.0012093281         3.2801942386         0.0041780000 1
         0.3559585906         0.0348985386         1.7815116630         0.0014180294         3.2802603156         0.0041780000 1
         0.3559599030         0.0379331890         1.7826961715         0.0016273093         3.2803323151         0.0041780000 1
         0.3559613257         0.0409678397         1.7839804311         0.0018371961         3.2804102134         0.0041780000 1
         0.3559628589         0.0440024906         1.7853646807         0.0020477183         3.2804939854         0.0041780000 1
