 Title="Shock-Particle Simulation"
 Variables = Xp, Yp, Up, Vp, Tp, Time, Onoff
 Zone T="WENO Step=   39 Time=    16.7120E-03 " I=      60
 AUXDATA Scheme = "WENO"       
 AUXDATA Step   = "   39"
 AUXDATA Time   = "   16.7120E-03"
 AUXDATA N      = "      60"
         0.3374770212        -0.0450556851        16.7576146457        -0.2011104129       346.1196357700         0.0167120000 1
         0.3373948524        -0.0419505633        16.7495535984        -0.1891119604       346.1206864126         0.0167120000 1
         0.3373185793        -0.0388454797        16.7420677129        -0.1771088038       346.1216587000         0.0167120000 1
         0.3372478922        -0.0357132570        16.7351291816        -0.1624313404       346.1225629533         0.0167120000 1
         0.3371834130        -0.0326081342        16.7287945818        -0.1504072454       346.1233793118         0.0167120000 1
         0.3371248118        -0.0295030485        16.7230337837        -0.1383782897       346.1241185333         0.0167120000 1
         0.3370720835        -0.0263979961        16.7178464085        -0.1263441061       346.1247809627         0.0167120000 1
         0.3370252235        -0.0232929735        16.7132321196        -0.1143043276       346.1253669129         0.0167120000 1
         0.3369842279        -0.0201879773        16.7091906230        -0.1022585871       346.1258766648         0.0167120000 1
         0.3369490931        -0.0170830038        16.7057216673        -0.0902065176       346.1263104673         0.0167120000 1
         0.3369198161        -0.0139780496        16.7028250430        -0.0781477521       346.1266685375         0.0167120000 1
         0.3368963944        -0.0108731110        16.7005005832        -0.0660819237       346.1269510603         0.0167120000 1
         0.3368788259        -0.0077681846        16.6987481635        -0.0540086653       346.1271581887         0.0167120000 1
         0.3368671092        -0.0046632668        16.6975677013        -0.0419276096       346.1272900437         0.0167120000 1
         0.3368612432        -0.0015583540        16.6969591567        -0.0298383895       346.1273467144         0.0167120000 1
         0.3368612275         0.0015466684        16.6969225446        -0.0177360451       346.1273282620         0.0167120000 1
         0.3368670622         0.0046515816        16.6974578964        -0.0056293948       346.1272347010         0.0167120000 1
         0.3368787476         0.0077565002        16.6985652986         0.0064865211       346.1270660303         0.0167120000 1
         0.3368962849         0.0108614278        16.7002448800         0.0186120707       346.1268222108         0.0167120000 1
         0.3369196754         0.0139663680        16.7024968115         0.0307476224       346.1265031712         0.0167120000 1
         0.3369489214         0.0170713241        16.7053213062         0.0428935446       346.1261088080         0.0167120000 1
         0.3369840252         0.0201762999        16.7087186193         0.0550502063       346.1256389858         0.0167120000 1
         0.3370249900         0.0232812987        16.7126890483         0.0672179768       346.1250935366         0.0167120000 1
         0.3370718192         0.0263863242        16.7172329326         0.0793972256       346.1244722606         0.0167120000 1
         0.3371245171         0.0294913798        16.7223506543         0.0915883227       346.1237749255         0.0167120000 1
         0.3371830880         0.0325964691        16.7280426372         0.1037916385       346.1230012667         0.0167120000 1
         0.3372475372         0.0357015956        16.7343093477         0.1160075439       346.1221509874         0.0167120000 1
         0.3373176373         0.0387797047        16.7411187393         0.1255763856       346.1212272342         0.0167120000 1
         0.3373938390         0.0418850402        16.7485341619         0.1378307442       346.1202232607         0.0167120000 1
         0.3374759375         0.0449904330        16.7565260008         0.1500997566       346.1191415783         0.0167120000 1
         0.4455341875        -0.0449502253        12.5833922890        -0.1839792957        19.3655683179         0.0167120000 1
         0.4454607173        -0.0418521449        12.5745066878        -0.1727760899        19.3647774298         0.0167120000 1
         0.4453925313        -0.0387541100        12.5662568092        -0.1615704460        19.3640386804         0.0167120000 1
         0.4453296207        -0.0356561167        12.5586420663        -0.1503619688        19.3633528650         0.0167120000 1
         0.4452719778        -0.0325581608        12.5516619204        -0.1391502618        19.3627207180         0.0167120000 1
         0.4452195954        -0.0294602382        12.5453158807        -0.1279349271        19.3621429133         0.0167120000 1
         0.4451724669        -0.0263623451        12.5396035041        -0.1167155657        19.3616200643         0.0167120000 1
         0.4451305865        -0.0232644773        12.5345243950        -0.1054917778        19.3611527237         0.0167120000 1
         0.4450939491        -0.0201666309        12.5300782051        -0.0942631624        19.3607413844         0.0167120000 1
         0.4450625501        -0.0170688017        12.5262646331        -0.0830293179        19.3603864790         0.0167120000 1
         0.4450363856        -0.0139709857        12.5230834248        -0.0717898418        19.3600883802         0.0167120000 1
         0.4450154524        -0.0108731790        12.5205343729        -0.0605443311        19.3598474010         0.0167120000 1
         0.4449997480        -0.0077753775        12.5186173167        -0.0492923823        19.3596637943         0.0167120000 1
         0.4449892704        -0.0046775772        12.5173321421        -0.0380335914        19.3595377534         0.0167120000 1
         0.4449840184        -0.0015797740        12.5166787818        -0.0267675540        19.3594694120         0.0167120000 1
         0.4449839913         0.0015180361        12.5166572148        -0.0154938657        19.3594588440         0.0167120000 1
         0.4449891892         0.0046158572        12.5172674668        -0.0042121220        19.3595060635         0.0167120000 1
         0.4449996127         0.0077136932        12.5185096097         0.0070780819        19.3596110251         0.0167120000 1
         0.4450152632         0.0108115481        12.5203837622         0.0183771504        19.3597736238         0.0167120000 1
         0.4450361426         0.0139094261        12.5228900894         0.0296854878        19.3599936943         0.0167120000 1
         0.4450622535         0.0170073311        12.5260288029         0.0410034980        19.3602710121         0.0167120000 1
         0.4450935992         0.0201052673        12.5298001610         0.0523315846        19.3606052923         0.0167120000 1
         0.4451301836         0.0232032385        12.5342044688         0.0636701504        19.3609961902         0.0167120000 1
         0.4451720113         0.0263012489        12.5392420782         0.0750195979        19.3614433008         0.0167120000 1
         0.4452190875         0.0293993024        12.5449133879         0.0863803286        19.3619461589         0.0167120000 1
         0.4452714181         0.0324974032        12.5512188440         0.0977527431        19.3625042389         0.0167120000 1
         0.4453290097         0.0355955553        12.5581589397         0.1091372411        19.3631169544         0.0167120000 1
         0.4453918695         0.0386937626        12.5657342158         0.1205342212        19.3637836584         0.0167120000 1
         0.4454600053         0.0417920293        12.5739452605         0.1319440807        19.3645036428         0.0167120000 1
         0.4455334259         0.0448903595        12.5827927103         0.1433672156        19.3652761382         0.0167120000 1
