 Title="Shock-Particle Simulation"
 Variables = Xp, Yp, Up, Vp, Tp, Time, Onoff
 Zone T="WENO Step=   88 Time=    37.6020E-03 " I=      60
 AUXDATA Scheme = "WENO"       
 AUXDATA Step   = "   88"
 AUXDATA Time   = "   37.6020E-03"
 AUXDATA N      = "      60"
         0.7785153397        -0.0520539851        23.8908800142        -0.5090610953       360.5774180775         0.0376020000 1
         0.7782361991        -0.0484654581        23.8796754022        -0.4738776173       360.5792462175         0.0376020000 1
         0.7779771053        -0.0448769992        23.8692806257        -0.4386967674       360.5809492878         0.0376020000 1
         0.7777363177        -0.0412198051        23.8595843357        -0.4018170839       360.5825422541         0.0376020000 1
         0.7775173848        -0.0376312004        23.8508146710        -0.3666343452       360.5839957997         0.0376020000 1
         0.7773184338        -0.0340426730        23.8428513377        -0.3314543551       360.5853259035         0.0376020000 1
         0.7771394461        -0.0304542179        23.8356933178        -0.2962769750       360.5865330129         0.0376020000 1
         0.7769804049        -0.0268658303        23.8293396891        -0.2611020757       360.5876175271         0.0376020000 1
         0.7768412953        -0.0232775054        23.8237896258        -0.2259295361       360.5885797972         0.0376020000 1
         0.7767221044        -0.0196892384        23.8190423988        -0.1907592413       360.5894201271         0.0376020000 1
         0.7766228209        -0.0161010247        23.8150973762        -0.1555910811       360.5901387738         0.0376020000 1
         0.7765434354        -0.0125128596        23.8119540237        -0.1204249485       360.5907359474         0.0376020000 1
         0.7764839407        -0.0089247384        23.8096119043        -0.0852607380       360.5912118112         0.0376020000 1
         0.7764443309        -0.0053366565        23.8080706792        -0.0500983441       360.5915664815         0.0376020000 1
         0.7764246025        -0.0017486093        23.8073301069        -0.0149376597       360.5918000271         0.0376020000 1
         0.7764247538         0.0018395971        23.8073900623         0.0202249453       360.5919124691         0.0376020000 1
         0.7764447847         0.0054275888        23.8082504959         0.0553825450       360.5919037759         0.0376020000 1
         0.7764846969         0.0090155598        23.8099114449         0.0905387803       360.5917738721         0.0376020000 1
         0.7765444941         0.0126035146        23.8123730585         0.1256937802       360.5915226286         0.0376020000 1
         0.7766241817         0.0161914581        23.8156355826         0.1608476825       360.5911498638         0.0376020000 1
         0.7767237673         0.0197793950        23.8196993595         0.1960006356       360.5906553423         0.0376020000 1
         0.7768432600         0.0233673302        23.8245648279         0.2311527996       360.5900387733         0.0376020000 1
         0.7769826711         0.0269552687        23.8302325216         0.2663043475       360.5892998086         0.0376020000 1
         0.7771420134         0.0305432153        23.8367030696         0.3014554665       360.5884380409         0.0376020000 1
         0.7773213017         0.0341311752        23.8439771950         0.3366063592       360.5874530015         0.0376020000 1
         0.7775205528         0.0377191536        23.8520557144         0.3717572441       360.5863441585         0.0376020000 1
         0.7777397851         0.0413071556        23.8609395370         0.4069083574       360.5851109140         0.0376020000 1
         0.7779773112         0.0448266799        23.8705108865         0.4403663615       360.5837668852         0.0376020000 1
         0.7782364341         0.0484150610        23.8809994137         0.4755265886       360.5822839230         0.0376020000 1
         0.7785156066         0.0520035067        23.8922966391         0.5106884692       360.5806743344         0.0376020000 1
         0.8351633060        -0.0517092719        22.7145170512        -0.5161577253        42.5364750454         0.0376020000 1
         0.8348617476        -0.0481476796        22.7013798553        -0.4808242048        42.5364136985         0.0376020000 1
         0.8345818237        -0.0445860416        22.6891880418        -0.4454766637        42.5363609316         0.0376020000 1
         0.8343235115        -0.0410243601        22.6779407153        -0.4101159615        42.5363180293         0.0376020000 1
         0.8340867903        -0.0374626371        22.6676370392        -0.3747429578        42.5362861439         0.0376020000 1
         0.8338716407        -0.0339008747        22.6582762368        -0.3393585136        42.5362662981         0.0376020000 1
         0.8336780455        -0.0303390747        22.6498575918        -0.3039634914        42.5362593863         0.0376020000 1
         0.8335059887        -0.0267772393        22.6423804494        -0.2685587556        42.5362661768         0.0376020000 1
         0.8333554566        -0.0232153703        22.6358442167        -0.2331451731        42.5362873134         0.0376020000 1
         0.8332264368        -0.0196534698        22.6302483638        -0.1977236138        42.5363233175         0.0376020000 1
         0.8331189189        -0.0160915396        22.6255924241        -0.1622949503        42.5363745888         0.0376020000 1
         0.8330328940        -0.0125295816        22.6218759946        -0.1268600587        42.5364414077         0.0376020000 1
         0.8329683552        -0.0089675980        22.6190987372        -0.0914198189        42.5365239360         0.0376020000 1
         0.8329252972        -0.0054055905        22.6172603782        -0.0559751140        42.5366222188         0.0376020000 1
         0.8329037163        -0.0018435611        22.6163607093        -0.0205268315        42.5367361849         0.0376020000 1
         0.8329036108         0.0017184881        22.6163995875         0.0149241375        42.5368656483         0.0376020000 1
         0.8329249807         0.0052805551        22.6173769355         0.0503768977        42.5370103092         0.0376020000 1
         0.8329678275         0.0088426380        22.6192927419         0.0858305495        42.5371697544         0.0376020000 1
         0.8330321547         0.0124047347        22.6221470613         0.1212841892        42.5373434581         0.0376020000 1
         0.8331179675         0.0159668430        22.6259400142         0.1567369090        42.5375307828         0.0376020000 1
         0.8332252727         0.0195289609        22.6306717871         0.1921877963        42.5377309793         0.0376020000 1
         0.8333540790         0.0230910861        22.6363426322         0.2276359347        42.5379431869         0.0376020000 1
         0.8335043968         0.0266532166        22.6429528678         0.2630804029        42.5381664341         0.0376020000 1
         0.8336762383         0.0302153500        22.6505028773         0.2985202755        42.5383996380         0.0376020000 1
         0.8338696173         0.0337774840        22.6589931094         0.3339546221        42.5386416047         0.0376020000 1
         0.8340845497         0.0373396162        22.6684240777         0.3693825081        42.5388910288         0.0376020000 1
         0.8343210527         0.0409017444        22.6787963603         0.4048029939        42.5391464931         0.0376020000 1
         0.8345791456         0.0444638660        22.6901105991         0.4402151349        42.5394064679         0.0376020000 1
         0.8348588493         0.0480259784        22.7023674995         0.4756179817        42.5396693110         0.0376020000 1
         0.8351601867         0.0515880791        22.7155678298         0.5110105793        42.5399332662         0.0376020000 1
