 Title="Shock-Particle Simulation"
 Variables = Xp, Yp, Up, Vp, Tp, Time, Onoff
 Zone T="WENO Step=  167 Time=    71.0260E-03 " I=      60
 AUXDATA Scheme = "WENO"       
 AUXDATA Step   = "  167"
 AUXDATA Time   = "   71.0260E-03"
 AUXDATA N      = "      60"
         1.6920829052        -0.0730680300        30.5007576058        -0.6426176671       375.5241031429         0.0710260000 1
         1.6914071914        -0.0680084682        30.4882362175        -0.5981295331       375.5281854214         0.0710260000 1
         1.6907803833        -0.0629483900        30.4766258603        -0.5535891513       375.5319873365         0.0710260000 1
         1.6901948681        -0.0577672594        30.4656916729        -0.5076451182       375.5355062811         0.0710260000 1
         1.6896661880        -0.0527058176        30.4559129878        -0.4630058726       375.5387470739         0.0710260000 1
         1.6891861267        -0.0476440470        30.4470361193        -0.4183265246       375.5417068110         0.0710260000 1
         1.6887546017        -0.0425819967        30.4390584346        -0.3736109297       375.5443852655         0.0710260000 1
         1.6883715379        -0.0375197161        30.4319775589        -0.3288629383       375.5467822155         0.0710260000 1
         1.6880368682        -0.0324572553        30.4257913744        -0.2840863962       375.5488974449         0.0710260000 1
         1.6877505333        -0.0273946645        30.4204980198        -0.2392851459       375.5507307452         0.0710260000 1
         1.6875124818        -0.0223319945        30.4160958896        -0.1944630270       375.5522819165         0.0710260000 1
         1.6873227417        -0.0172693011        30.4125856376        -0.1496240737       375.5535526323         0.0710260000 1
         1.6871812252        -0.0122066317        30.4099647187        -0.1047719669       375.5545413493         0.0710260000 1
         1.6870878535        -0.0071440345        30.4082308675        -0.0599104054       375.5552465908         0.0710260000 1
         1.6870426061        -0.0020815612        30.4073834971        -0.0150432314       375.5556681928         0.0710260000 1
         1.6870454719         0.0029810411        30.4074223023         0.0298288874       375.5558060014         0.0710260000 1
         1.6870964460         0.0080431102        30.4083471984         0.0746957530       375.5556598685         0.0710260000 1
         1.6871955309         0.0131048989        30.4101583338         0.1195566936       375.5552296602         0.0710260000 1
         1.6873427376         0.0181663550        30.4128561332         0.1644078580       375.5545152461         0.0710260000 1
         1.6875381506         0.0232274230        30.4164431010         0.2092452546       375.5535181778         0.0710260000 1
         1.6877818222         0.0282880499        30.4209208867         0.2540649884       375.5522390216         0.0710260000 1
         1.6880737266         0.0333481870        30.4262889872         0.2988633332       375.5506760817         0.0710260000 1
         1.6884139059         0.0384077827        30.4325488347         0.3436364248       375.5488292311         0.0710260000 1
         1.6888024100         0.0434667853        30.4397021137         0.3883803909       375.5466983382         0.0710260000 1
         1.6892392967         0.0485251435        30.4477507603         0.4330913499       375.5442832645         0.0710260000 1
         1.6897246313         0.0535828059        30.4566969629         0.4777654098       375.5415838609         0.0710260000 1
         1.6902584869         0.0586397216        30.4665431616         0.5223986667       375.5385999649         0.0710260000 1
         1.6908329487         0.0635758593        30.4770401420         0.5656382564       375.5353278868         0.0710260000 1
         1.6914634868         0.0686316968        30.4886756122         0.6101851977       375.5317742377         0.0710260000 1
         1.6921428193         0.0736866794        30.5012201558         0.6546800768       375.5279354954         0.0710260000 1
         1.7291575206        -0.0727795367        30.1853937307        -0.6331470820        67.5888819485         0.0710260000 1
         1.7284059110        -0.0677515457        30.1716986313        -0.5895014596        67.5923361138         0.0710260000 1
         1.7277085533        -0.0627222907        30.1589979870        -0.5457843318        67.5955561452         0.0710260000 1
         1.7270653453        -0.0576918759        30.1472882631        -0.5020010727        67.5985416282         0.0710260000 1
         1.7264762902        -0.0526604134        30.1365686502        -0.4581573447        67.6012950360         0.0710260000 1
         1.7259414417        -0.0476280180        30.1268396783        -0.4142588979        67.6038201242         0.0710260000 1
         1.7254604477        -0.0425947692        30.1180917699        -0.3703101562        67.6061083885         0.0710260000 1
         1.7250332357        -0.0375607702        30.1103224582        -0.3263164150        67.6081593776         0.0710260000 1
         1.7246597409        -0.0325261242        30.1035295435        -0.2822829558        67.6099726407         0.0710260000 1
         1.7243399060        -0.0274909342        30.0977110928        -0.2382150480        67.6115477301         0.0710260000 1
         1.7240736812        -0.0224553033        30.0928654402        -0.1941179511        67.6128842026         0.0710260000 1
         1.7238610243        -0.0174193346        30.0889911864        -0.1499969177        67.6139816217         0.0710260000 1
         1.7237019006        -0.0123831313        30.0860871985        -0.1058571950        67.6148395590         0.0710260000 1
         1.7235962830        -0.0073467965        30.0841526102        -0.0617040278        67.6154575950         0.0710260000 1
         1.7235441522        -0.0023104338        30.0831868212        -0.0175426601        67.6158353206         0.0710260000 1
         1.7235454962         0.0027258534        30.0831894970         0.0266216621        67.6159723372         0.0710260000 1
         1.7236003107         0.0077619613        30.0841605685         0.0707836888        67.6158682580         0.0710260000 1
         1.7237085991         0.0127977858        30.0861002322         0.1149381637        67.6155227073         0.0710260000 1
         1.7238703722         0.0178332227        30.0890089491         0.1590798217        67.6149353211         0.0710260000 1
         1.7240856488         0.0228681673        30.0928874446         0.2032033868        67.6141057465         0.0710260000 1
         1.7243544548         0.0279025148        30.0977367084         0.2473035696        67.6130336414         0.0710260000 1
         1.7246768240         0.0329361598        30.1035579936         0.2913750648        67.6117186735         0.0710260000 1
         1.7250527977         0.0379689966        30.1103528163         0.3354125490        67.6101605196         0.0710260000 1
         1.7254824247         0.0430009191        30.1181229553         0.3794106780        67.6083588638         0.0710260000 1
         1.7259657617         0.0480318207        30.1268704514         0.4233640842        67.6063133965         0.0710260000 1
         1.7265028724         0.0530615941        30.1365976070         0.4672673739        67.6040238125         0.0710260000 1
         1.7270941172         0.0580901209        30.1473142066         0.5111147171        67.6014983466         0.0710260000 1
         1.7277394014         0.0631173011        30.1590187329         0.5549009741        67.5987315247         0.0710260000 1
         1.7284387295         0.0681430293        30.1717122236         0.5986207922        67.5957206072         0.0710260000 1
         1.7291921955         0.0731671962        30.1853980202         0.6422686578        67.5924652705         0.0710260000 1
