 Title="Shock-Particle Simulation"
 Variables = Xp, Yp, Up, Vp, Tp, Time, Onoff
 Zone T="WENO Step=  118 Time=    50.1360E-03 " I=      60
 AUXDATA Scheme = "WENO"       
 AUXDATA Step   = "  118"
 AUXDATA Time   = "   50.1360E-03"
 AUXDATA N      = "      60"
         1.0946773440        -0.0593201936        26.5720233125        -0.6460855213       367.0540696811         0.0501360000 1
         1.0942544770        -0.0552159659        26.5604083191        -0.6007918930       367.0570583831         0.0501360000 1
         1.0938621207        -0.0511118775        26.5496392079        -0.5554898065       367.0598461561         0.0501360000 1
         1.0934968260        -0.0469183623        26.5395557631        -0.5085716559       367.0624457701         0.0501360000 1
         1.0931656301        -0.0428142016        26.5304849314        -0.4632496692       367.0648306785         0.0501360000 1
         1.0928648153        -0.0387102072        26.5222536311        -0.4179230992       367.0670145947         0.0501360000 1
         1.0925943440        -0.0346063782        26.5148600212        -0.3725930830       367.0689974577         0.0501360000 1
         1.0923541822        -0.0305027139        26.5083024278        -0.3272607757       367.0707791861         0.0501360000 1
         1.0921442996        -0.0263992136        26.5025793441        -0.2819273493       367.0723596811         0.0501360000 1
         1.0919646691        -0.0222958772        26.4976894311        -0.2365939909       367.0737388271         0.0501360000 1
         1.0918152673        -0.0181927043        26.4936315182        -0.1912619012       367.0749164934         0.0501360000 1
         1.0916960743        -0.0140896951        26.4904046030        -0.1459322936       367.0758925349         0.0501360000 1
         1.0916070737        -0.0099868495        26.4880078521        -0.1006063918       367.0766667931         0.0501360000 1
         1.0915482529        -0.0058841677        26.4864406007        -0.0552854288       367.0772390959         0.0501360000 1
         1.0915196025        -0.0017816498        26.4857023533        -0.0099706451       367.0776092582         0.0501360000 1
         1.0915211173         0.0023209380        26.4857928064         0.0353403002       367.0777770811         0.0501360000 1
         1.0915527953         0.0064231277        26.4867117959         0.0806389799       367.0777423487         0.0501360000 1
         1.0916146372         0.0105251531        26.4884593159         0.1259277282       367.0775048368         0.0501360000 1
         1.0917066481         0.0146270144        26.4910355461         0.1712052905       367.0770643021         0.0501360000 1
         1.0918288365         0.0187287118        26.4944408348         0.2164704123       367.0764204839         0.0501360000 1
         1.0919812143         0.0228302458        26.4986756983         0.2617218410       367.0755731028         0.0501360000 1
         1.0921637972         0.0269316168        26.5037408207         0.3069583272       367.0745218587         0.0501360000 1
         1.0923766042         0.0310328258        26.5096370533         0.3521786261       367.0732664285         0.0501360000 1
         1.0926196580         0.0351338737        26.5163654144         0.3973814987       367.0718064641         0.0501360000 1
         1.0928929847         0.0392347621        26.5239270884         0.4425657130       367.0701415898         0.0501360000 1
         1.0931966139         0.0433354926        26.5323234254         0.4877300453       367.0682713990         0.0501360000 1
         1.0935305786         0.0474360671        26.5415559406         0.5328732808       367.0661954520         0.0501360000 1
         1.0938913976         0.0514473669        26.5514544028         0.5763964223       367.0639270899         0.0501360000 1
         1.0942858747         0.0555480512        26.5623515140         0.6215015746       367.0614392341         0.0501360000 1
         1.0947108111         0.0596486196        26.5740905021         0.6665826303       367.0587440540         0.0501360000 1
         1.1406491784        -0.0590909738        25.9380773650        -0.6502586198        53.1405387986         0.0501360000 1
         1.1401823669        -0.0550100559        25.9248982090        -0.6049523391        53.1423429758         0.0501360000 1
         1.1397491579        -0.0509289203        25.9126748646        -0.5596167713        53.1440312689         0.0501360000 1
         1.1393495075        -0.0468475896        25.9014050139        -0.5142546086        53.1456038607         0.0501360000 1
         1.1389833751        -0.0427660860        25.8910944507        -0.4688690742        53.1470686677         0.0501360000 1
         1.1386507231        -0.0386844319        25.8817526347        -0.4234635731        53.1484370055         0.0501360000 1
         1.1383515169        -0.0346026496        25.8733556214        -0.3780392873        53.1496871661         0.0501360000 1
         1.1380857255        -0.0305207613        25.8659017406        -0.3325989160        53.1508190636         0.0501360000 1
         1.1378533209        -0.0264387893        25.8593894897        -0.2871451610        53.1518325596         0.0501360000 1
         1.1376542781        -0.0223567560        25.8538175339        -0.2416807276        53.1527274662         0.0501360000 1
         1.1374885757        -0.0182746836        25.8491847073        -0.1962083253        53.1535035481         0.0501360000 1
         1.1373561953        -0.0141925945        25.8454900132        -0.1507306684        53.1541605250         0.0501360000 1
         1.1372571218        -0.0101105110        25.8427326248        -0.1052504766        53.1546980736         0.0501360000 1
         1.1371913434        -0.0060284556        25.8409118851        -0.0597704759        53.1551158292         0.0501360000 1
         1.1371588514        -0.0019464507        25.8400273078        -0.0142933986        53.1554133876         0.0501360000 1
         1.1371596404         0.0021354812        25.8400785770         0.0311780160        53.1555903060         0.0501360000 1
         1.1371937084         0.0062173177        25.8410655478         0.0766410211        53.1556461043         0.0501360000 1
         1.1372610566         0.0102990359        25.8429882458         0.1220928622        53.1555802658         0.0501360000 1
         1.1373616894         0.0143806135        25.8458468677         0.1675307764        53.1553922378         0.0501360000 1
         1.1374956145         0.0184620275        25.8496417808         0.2129519923        53.1550814321         0.0501360000 1
         1.1376628428         0.0225432554        25.8543735231         0.2583537297        53.1546472248         0.0501360000 1
         1.1378633887         0.0266242743        25.8600428028         0.3037331988        53.1540889565         0.0501360000 1
         1.1380972697         0.0307050613        25.8666504981         0.3490876002        53.1534059314         0.0501360000 1
         1.1383645066         0.0347855934        25.8741976570         0.3944141241        53.1525974173         0.0501360000 1
         1.1386651235         0.0388658478        25.8826854965         0.4397099502        53.1516626443         0.0501360000 1
         1.1389991476         0.0429458012        25.8921154025         0.4849722470        53.1506008039         0.0501360000 1
         1.1393666097         0.0470254307        25.9025123950         0.5301975282        53.1494340862         0.0501360000 1
         1.1397675436         0.0511047129        25.9138640573         0.5753834470        53.1481476762         0.0501360000 1
         1.1402019864         0.0551836246        25.9261656157         0.6205273516        53.1467340820         0.0501360000 1
         1.1406699786         0.0592621424        25.9394191103         0.6656263805        53.1451922968         0.0501360000 1
