 Title="Shock-Particle Simulation"
 Variables = Xp, Yp, Up, Vp, Tp, Time, Onoff
 Zone T="WENO Step=   19 Time=     8.3560E-03 " I=      60
 AUXDATA Scheme = "WENO"       
 AUXDATA Step   = "   19"
 AUXDATA Time   = "    8.3560E-03"
 AUXDATA N      = "      60"
         0.2209029335        -0.0441098195        10.5631904587        -0.0420243139       338.3555110463         0.0083560000 1
         0.2208805919        -0.0410682493        10.5573269495        -0.0388514661       338.3558523781         0.0083560000 1
         0.2208598554        -0.0380266852        10.5518852670        -0.0356826196       338.3561686585         0.0083560000 1
         0.2208407219        -0.0349851267        10.5468648258        -0.0325175445       338.3564600619         0.0083560000 1
         0.2208231895        -0.0319435731        10.5422650852        -0.0293560118       338.3567267491         0.0083560000 1
         0.2208072562        -0.0289020237        10.5380855493        -0.0261977931       338.3569688674         0.0083560000 1
         0.2207929205        -0.0258604780        10.5343257670        -0.0230426606       338.3571865507         0.0083560000 1
         0.2207801807        -0.0228189354        10.5309853322        -0.0198903872       338.3573799192         0.0083560000 1
         0.2207690357        -0.0197773951        10.5280638830        -0.0167407465       338.3575490795         0.0083560000 1
         0.2207594842        -0.0167358567        10.5255611026        -0.0135935122       338.3576941250         0.0083560000 1
         0.2207515252        -0.0136943194        10.5234767183        -0.0104484590       338.3578151350         0.0083560000 1
         0.2207451579        -0.0106527827        10.5218105023        -0.0073053617       338.3579121758         0.0083560000 1
         0.2207403816        -0.0076112460        10.5205622711        -0.0041639956       338.3579852998         0.0083560000 1
         0.2207371959        -0.0045697086        10.5197318859        -0.0010241363       338.3580345459         0.0083560000 1
         0.2207356004        -0.0015281699        10.5193192523         0.0021144401       338.3580599395         0.0083560000 1
         0.2207355949         0.0015134358        10.5193243207         0.0052586955       338.3580614912         0.0083560000 1
         0.2207371795         0.0045549788        10.5197470896         0.0083953748       338.3580392011         0.0083560000 1
         0.2207403543         0.0075965250        10.5205875934         0.0115314394       338.3579930531         0.0083560000 1
         0.2207451197         0.0106380749        10.5218459156         0.0146671126       338.3579230184         0.0083560000 1
         0.2207514761         0.0136796291        10.5235221840         0.0178026173       338.3578290545         0.0083560000 1
         0.2207594242         0.0167211883        10.5256165712         0.0209381767       338.3577111054         0.0083560000 1
         0.2207689650         0.0197627530        10.5281292939         0.0240740137       338.3575691015         0.0083560000 1
         0.2207800992         0.0228043240        10.5310606138         0.0272103513       338.3574029597         0.0083560000 1
         0.2207928283         0.0258459017        10.5344108369         0.0303474126       338.3572125834         0.0083560000 1
         0.2208071534         0.0288874868        10.5381803140         0.0334854209       338.3569978624         0.0083560000 1
         0.2208230761         0.0319290800        10.5423694406         0.0366245994       338.3567586730         0.0083560000 1
         0.2208405980         0.0349706819        10.5469786568         0.0397651718       338.3564948778         0.0083560000 1
         0.2208597211         0.0380122930        10.5520084477         0.0429073618       338.3562063263         0.0083560000 1
         0.2208804472         0.0410539141        10.5574593433         0.0460513935       338.3558928542         0.0083560000 1
         0.2209027786         0.0440955457        10.5633319184         0.0491974913       338.3555542837         0.0083560000 1
         0.3702805304        -0.0440789834         5.2392763219        -0.0337965650         8.0403931319         0.0083560000 1
         0.3702662848        -0.0410395954         5.2345545069        -0.0312182702         8.0397816117         0.0083560000 1
         0.3702530680        -0.0380002125         5.2301739161        -0.0286442157         8.0392126948         0.0083560000 1
         0.3702408773        -0.0349608341         5.2261337387        -0.0260741400         8.0386866528         0.0083560000 1
         0.3702297104        -0.0319214597         5.2224332294        -0.0235077826         8.0382037363         0.0083560000 1
         0.3702195650        -0.0288820887         5.2190717068        -0.0209448843         8.0377641747         0.0083560000 1
         0.3702104390        -0.0258427205         5.2160485534        -0.0183851865         8.0373681762         0.0083560000 1
         0.3702023307        -0.0228033546         5.2133632147        -0.0158284319         8.0370159281         0.0083560000 1
         0.3701952384        -0.0197639904         5.2110151985        -0.0132743637         8.0367075963         0.0083560000 1
         0.3701891608        -0.0167246275         5.2090040748        -0.0107227260         8.0364433260         0.0083560000 1
         0.3701840966        -0.0136852651         5.2073294753        -0.0081732634         8.0362232410         0.0083560000 1
         0.3701800449        -0.0106459029         5.2059910927        -0.0056257212         8.0360474442         0.0083560000 1
         0.3701770048        -0.0076065402         5.2049886808        -0.0030798451         8.0359160177         0.0083560000 1
         0.3701749758        -0.0045671766         5.2043220543        -0.0005353813         8.0358290222         0.0083560000 1
         0.3701739574        -0.0015278113         5.2039910880         0.0020079237         8.0357864976         0.0083560000 1
         0.3701739495         0.0015115560         5.2039957176         0.0045503229         8.0357884628         0.0083560000 1
         0.3701749521         0.0045509259         5.2043359389         0.0070920693         8.0358349156         0.0083560000 1
         0.3701769653         0.0075902991         5.2050118081         0.0096334158         8.0359258330         0.0083560000 1
         0.3701799896         0.0106296759         5.2060234419         0.0121746151         8.0360611708         0.0083560000 1
         0.3701840257         0.0136690571         5.2073710175         0.0147159198         8.0362408639         0.0083560000 1
         0.3701890742         0.0167084431         5.2090547730         0.0172575828         8.0364648261         0.0083560000 1
         0.3701951362         0.0197478345         5.2110750072         0.0197998568         8.0367329504         0.0083560000 1
         0.3702022129         0.0227872318         5.2134320803         0.0223429952         8.0370451086         0.0083560000 1
         0.3702103058         0.0258266356         5.2161264142         0.0248872511         8.0374011515         0.0083560000 1
         0.3702194164         0.0288660465         5.2191584927         0.0274328785         8.0378009088         0.0083560000 1
         0.3702295466         0.0319054650         5.2225288622         0.0299801315         8.0382441893         0.0083560000 1
         0.3702406984         0.0349448917         5.2262381323         0.0325292648         8.0387307805         0.0083560000 1
         0.3702528741         0.0379843271         5.2302869760         0.0350805338         8.0392604491         0.0083560000 1
         0.3702660760         0.0410237718         5.2346761307         0.0376341945         8.0398329403         0.0083560000 1
         0.3702803068         0.0440632264         5.2394063991         0.0401905037         8.0404479786         0.0083560000 1
