 Title="Shock-Particle Simulation"
 Variables = Xp, Yp, Up, Vp, Tp, Time, Onoff
 Zone T="WENO Step=  148 Time=    62.6700E-03 " I=      60
 AUXDATA Scheme = "WENO"       
 AUXDATA Step   = "  148"
 AUXDATA Time   = "   62.6700E-03"
 AUXDATA N      = "      60"
         1.4430152351        -0.0675667777        29.0681107779        -0.6701817567       372.4145267468         0.0626700000 1
         1.4424416083        -0.0628861640        29.0560148680        -0.6240608217       372.4182884774         0.0626700000 1
         1.4419094571        -0.0582054491        29.0447988642        -0.5778996202       372.4217928339         0.0626700000 1
         1.4414130017        -0.0534158361        29.0342574576        -0.5302380797       372.4250452267         0.0626700000 1
         1.4409640433        -0.0487345571        29.0248101249        -0.4839975758       372.4280343336         0.0626700000 1
         1.4405563454        -0.0440532773        29.0162350228        -0.4377248276       372.4307658560         0.0626700000 1
         1.4401898459        -0.0393720181        29.0085299438        -0.3914223588       372.4332396932         0.0626700000 1
         1.4398644884        -0.0346908014        29.0016928909        -0.3450927105       372.4354557308         0.0626700000 1
         1.4395802222        -0.0300096492        28.9957220774        -0.2987384407       372.4374138423         0.0626700000 1
         1.4393370025        -0.0253285842        28.9906159266        -0.2523621248       372.4391138901         0.0626700000 1
         1.4391347906        -0.0206476291        28.9863730712        -0.2059663554       372.4405557272         0.0626700000 1
         1.4389736037        -0.0159668099        28.9829955313        -0.1595539712       372.4417417453         0.0626700000 1
         1.4388533782        -0.0112861475        28.9804800617        -0.1131274188       372.4426699249         0.0626700000 1
         1.4387740568        -0.0066056630        28.9788236629        -0.0666891840       372.4433383030         0.0626700000 1
         1.4387356240        -0.0019253799        28.9780258037        -0.0202419366       372.4437466967         0.0626700000 1
         1.4387380709         0.0027549559        28.9780861882         0.0262150191       372.4438949159         0.0626700000 1
         1.4387813938         0.0074347651        28.9790046950         0.0726722111       372.4437827581         0.0626700000 1
         1.4388655939         0.0121143020        28.9807813975         0.1191302998       372.4434100199         0.0626700000 1
         1.4389906792         0.0167935431        28.9834165971         0.1655865456       372.4427764842         0.0626700000 1
         1.4391567098         0.0214724627        28.9869137044         0.2120380330       372.4418842236         0.0626700000 1
         1.4393637234         0.0261510373        28.9912745801         0.2584819474       372.4407339308         0.0626700000 1
         1.4396117031         0.0308292458        28.9964974741         0.3049156582       372.4393231978         0.0626700000 1
         1.4399006801         0.0355070658        29.0025835166         0.3513363653       372.4376517449         0.0626700000 1
         1.4402306916         0.0401844749        29.0095340448         0.3977412501       372.4357192725         0.0626700000 1
         1.4406017804         0.0448614510        29.0173506031         0.4441274756       372.4335254582         0.0626700000 1
         1.4410139952         0.0495379724        29.0260349429         0.4904921854       372.4310699544         0.0626700000 1
         1.4414673904         0.0542140179        29.0355890229         0.5368325034       372.4283523852         0.0626700000 1
         1.4419560021         0.0587813139        29.0457935931         0.5816874915       372.4253769213         0.0626700000 1
         1.4424914836         0.0634568531        29.0570771944         0.6279774896       372.4221344085         0.0626700000 1
         1.4430683495         0.0681318937        29.0692378737         0.6742349020       372.4186284991         0.0626700000 1
         1.4829950225        -0.0673530347        28.6914323006        -0.6642028537        62.2168079877         0.0626700000 1
         1.4823562917        -0.0626980388        28.6779040632        -0.6185622487        62.2196750069         0.0626700000 1
         1.4817636158        -0.0580423519        28.6653571066        -0.5728635159        62.2223487926         0.0626700000 1
         1.4812169203        -0.0533860376        28.6537885092        -0.5271106849        62.2248293888         0.0626700000 1
         1.4807162081        -0.0487291646        28.6431994737        -0.4813081475        62.2271210942         0.0626700000 1
         1.4802615187        -0.0440718035        28.6335931359        -0.4354604208        62.2292300752         0.0626700000 1
         1.4798525941        -0.0394140016        28.6249563471        -0.3895704916        62.2311442494         0.0626700000 1
         1.4794893812        -0.0347558216        28.6172870481        -0.3436423903        62.2328634568         0.0626700000 1
         1.4791718324        -0.0300973266        28.6105833972        -0.2976801517        62.2343874976         0.0626700000 1
         1.4788999057        -0.0254385792        28.6048437697        -0.2516878174        62.2357161346         0.0626700000 1
         1.4786735643        -0.0207796422        28.6000667583        -0.2056694376        62.2368490951         0.0626700000 1
         1.4784927772        -0.0161205786        28.5962511732        -0.1596290730        62.2377860730         0.0626700000 1
         1.4783575187        -0.0114614510        28.5933960421        -0.1135707969        62.2385267303         0.0626700000 1
         1.4782677686        -0.0068023223        28.5915006100        -0.0674986969        62.2390706988         0.0626700000 1
         1.4782235124        -0.0021432554        28.5905643394        -0.0214168768        62.2394175810         0.0626700000 1
         1.4782247409         0.0025156868        28.5905869101         0.0246705415        62.2395669516         0.0626700000 1
         1.4782714506         0.0071744411        28.5915682191         0.0707594163        62.2395183580         0.0626700000 1
         1.4783636435         0.0118329445        28.5935083806         0.1168455839        62.2392713211         0.0626700000 1
         1.4785013271         0.0164911337        28.5964077257         0.1629248575        62.2388253356         0.0626700000 1
         1.4786845145         0.0211489452        28.6002668024         0.2089930247        62.2381798703         0.0626700000 1
         1.4789132243         0.0258063157        28.6050863753         0.2550458457        62.2373343683         0.0626700000 1
         1.4791874806         0.0304631813        28.6108674254         0.3010790518        62.2362882463         0.0626700000 1
         1.4795073131         0.0351194783        28.6176111498         0.3470883430        62.2350408946         0.0626700000 1
         1.4798727571         0.0397751427        28.6253189618         0.3930693866        62.2335916764         0.0626700000 1
         1.4802838533         0.0444301101        28.6339924903         0.4390178143        62.2319399269         0.0626700000 1
         1.4807406479         0.0490843161        28.6436335793         0.4849292210        62.2300849524         0.0626700000 1
         1.4812434046         0.0537376891        28.6542558125         0.5307986878        62.2280387444         0.0626700000 1
         1.4817920529         0.0583901694        28.6658545264         0.5766220945        62.2257928525         0.0626700000 1
         1.4823865954         0.0630416945        28.6784289406         0.6223950685        62.2233428645         0.0626700000 1
         1.4830271002         0.0676921988        28.6919817529         0.6681130474        62.2206879382         0.0626700000 1
