 Title="Shock-Particle Simulation"
 Variables = Xp, Yp, Up, Vp, Tp, Time, Onoff
 Zone T="WENO Step=   76 Time=     1.3310E-03 " I=      10
         0.1750029079        -0.0440000402         0.0237970103        -0.0004783200         1.5021005865         0.0013310000 1
         0.1750029174        -0.0342222441         0.0239314044        -0.0002641685         1.5025861057         0.0013310000 1
         0.1750029169        -0.0244444654         0.0239265403        -0.0002565687         1.5025686353         0.0013310000 1
         0.1750029163        -0.0146666868         0.0239214223        -0.0002479283         1.5025521773         0.0013310000 1
         0.1750029160        -0.0048889110         0.0239179919        -0.0005072146         1.5025383042         0.0013310000 1
         0.1750029160         0.0048888008         0.0239180548        -0.0010556106         1.5025385547         0.0013310000 1
         0.1750029163         0.0146665746         0.0239213834        -0.0013602756         1.5025519808         0.0013310000 1
         0.1750029169         0.0244443535         0.0239265023        -0.0013416029         1.5025684583         0.0013310000 1
         0.1750029174         0.0342221330         0.0239313689        -0.0013179220         1.5025859414         0.0013310000 1
         0.1750029079         0.0439999241         0.0237969787        -0.0010401940         1.5021003707         0.0013310000 1
