 Title="Shock-Particle Simulation"
 Variables = Xp, Yp, Up, Vp, Tp, Time, Onoff
 Zone T="WENO Step=   98 Time=     1.6940E-03 " I=      10
         0.1750170365        -0.0440011279         0.0527813085        -0.0080319256         1.7746735227         0.0016940000 1
         0.1750171110        -0.0342221491         0.0522517463         0.0011196739         1.7829956734         0.0016940000 1
         0.1750171264        -0.0244443920         0.0523677739         0.0014095146         1.7833053650         0.0016940000 1
         0.1750171259        -0.0146666882         0.0523722741         0.0011112458         1.7831620409         0.0016940000 1
         0.1750171313        -0.0048890686         0.0524077255         0.0007452530         1.7829153831         0.0016940000 1
         0.1750171311         0.0048878498         0.0524067765        -0.0046588418         1.7829069003         0.0016940000 1
         0.1750171257         0.0146654297         0.0523705432        -0.0052760309         1.7831517467         0.0016940000 1
         0.1750171262         0.0244431595         0.0523660801        -0.0054222161         1.7832955167         0.0016940000 1
         0.1750171109         0.0342209101         0.0522504201        -0.0051898014         1.7829870767         0.0016940000 1
         0.1750170365         0.0440001489         0.0527820667         0.0052152742         1.7746722195         0.0016940000 1
