 Title="Shock-Particle Simulation"
 Variables = Xp, Yp, Up, Vp, Tp, Time, Onoff
 Zone T="WENO Step=   13 Time=   242.0000E-06 " I=      10
         0.1750000000        -0.0440000000         0.0000000000         0.0000000000         1.4000000000         0.0002420000 1
         0.1750000000        -0.0342222222         0.0000000000         0.0000000000         1.4000000000         0.0002420000 1
         0.1750000000        -0.0244444444         0.0000000000         0.0000000000         1.4000000000         0.0002420000 1
         0.1750000000        -0.0146666667         0.0000000000         0.0000000000         1.4000000000         0.0002420000 1
         0.1750000000        -0.0048888889         0.0000000000         0.0000000000         1.4000000000         0.0002420000 1
         0.1750000000         0.0048888889         0.0000000000         0.0000000000         1.4000000000         0.0002420000 1
         0.1750000000         0.0146666667         0.0000000000         0.0000000000         1.4000000000         0.0002420000 1
         0.1750000000         0.0244444444         0.0000000000         0.0000000000         1.4000000000         0.0002420000 1
         0.1750000000         0.0342222222         0.0000000000         0.0000000000         1.4000000000         0.0002420000 1
         0.1750000000         0.0440000000         0.0000000000         0.0000000000         1.4000000000         0.0002420000 1
