 Title="Shock-Particle Simulation"
 Variables = Xp, Yp, Up, Vp, Tp, Time, Onoff
 Zone T="WENO Step=   69 Time=    29.2460E-03 " I=      60
 AUXDATA Scheme = "WENO"       
 AUXDATA Step   = "   69"
 AUXDATA Time   = "   29.2460E-03"
 AUXDATA N      = "      60"
         0.5860302819        -0.0483205395        22.1404061140        -0.3718134913       355.6188909495         0.0292460000 1
         0.5858367220        -0.0449858502        22.1308822501        -0.3465118025       355.6209863893         0.0292460000 1
         0.5856570568        -0.0416512458        22.1220404159        -0.3212078999       355.6229267809         0.0292460000 1
         0.5854903053        -0.0382625891        22.1138068518        -0.2940740716       355.6247305356         0.0292460000 1
         0.5853384596        -0.0349279313        22.1063327585        -0.2687588347       355.6263612163         0.0292460000 1
         0.5852004676        -0.0315933634        22.0995384584        -0.2434422912       355.6278384619         0.0292460000 1
         0.5850763175        -0.0282588807        22.0934233121        -0.2181245310       355.6291627328         0.0292460000 1
         0.5849659986        -0.0249244784        22.0879867472        -0.1928056461       355.6303344481         0.0292460000 1
         0.5848695016        -0.0215901519        22.0832282579        -0.1674857301       355.6313539858         0.0292460000 1
         0.5847868182        -0.0182558965        22.0791474057        -0.1421648777       355.6322216834         0.0292460000 1
         0.5847179413        -0.0149217074        22.0757438194        -0.1168431850       355.6329378376         0.0292460000 1
         0.5846628650        -0.0115875801        22.0730171947        -0.0915207485       355.6335027050         0.0292460000 1
         0.5846215843        -0.0082535098        22.0709672949        -0.0661976652       355.6339165018         0.0292460000 1
         0.5845940959        -0.0049194919        22.0695939504        -0.0408740322       355.6341794041         0.0292460000 1
         0.5845803971        -0.0015855218        22.0688970591        -0.0155499461       355.6342915483         0.0292460000 1
         0.5845804868         0.0017485652        22.0688765990         0.0097780098       355.6342530294         0.0292460000 1
         0.5845943650         0.0050824539        22.0695326014         0.0351027129       355.6340639026         0.0292460000 1
         0.5846220324         0.0084163087        22.0708651546         0.0604275822       355.6337241865         0.0292460000 1
         0.5846634913         0.0117501343        22.0728744259         0.0857525253       355.6332338573         0.0292460000 1
         0.5847187449         0.0150839355        22.0755606499         0.1110774518       355.6325928511         0.0292460000 1
         0.5847877979         0.0184177168        22.0789241283         0.1364022735       355.6318010638         0.0292460000 1
         0.5848706559         0.0217514828        22.0829652300         0.1617269046       355.6308583508         0.0292460000 1
         0.5849673256         0.0250852384        22.0876843911         0.1870512626       355.6297645266         0.0292460000 1
         0.5850778152         0.0284189880        22.0930821145         0.2123752678       355.6285193650         0.0292460000 1
         0.5852021337         0.0317527364        22.0991589700         0.2376988442       355.6271225985         0.0292460000 1
         0.5853402915         0.0350864883        22.1059155942         0.2630219198       355.6255739181         0.0292460000 1
         0.5854923001         0.0384202483        22.1133526903         0.2883444264       355.6238729729         0.0292460000 1
         0.5856572829         0.0417001265        22.1213920282         0.3118454211       355.6220347397         0.0292460000 1
         0.5858369591         0.0450341649        22.1301864756         0.3371749963       355.6200293513         0.0292460000 1
         0.5860305286         0.0483682448        22.1396639838         0.3625044781       355.6178703722         0.0292460000 1
         0.6566251277        -0.0480141109        19.9881162187        -0.3596776143        34.2838708352         0.0292460000 1
         0.6564246168        -0.0447030226        19.9772537167        -0.3354109661        34.2841007637         0.0292460000 1
         0.6562384971        -0.0413919885        19.9671683712        -0.3111360614        34.2843066210         0.0292460000 1
         0.6560667521        -0.0380810054        19.9578594711        -0.2868533603        34.2844894771         0.0292460000 1
         0.6559093670        -0.0347700699        19.9493263629        -0.2625633201        34.2846503216         0.0292460000 1
         0.6557663281        -0.0314591788        19.9415684497        -0.2382663956        34.2847900647         0.0292460000 1
         0.6556376229        -0.0281483286        19.9345851921        -0.2139630392        34.2849095373         0.0292460000 1
         0.6555232401        -0.0248375159        19.9283761082        -0.1896537012        34.2850094915         0.0292460000 1
         0.6554231699        -0.0215267373        19.9229407735        -0.1653388299        34.2850906015         0.0292460000 1
         0.6553374036        -0.0182159895        19.9182788209        -0.1410188718        34.2851534633         0.0292460000 1
         0.6552659337        -0.0149052689        19.9143899414        -0.1166942718        34.2851985954         0.0292460000 1
         0.6552087540        -0.0115945720        19.9112738833        -0.0923654731        34.2852264393         0.0292460000 1
         0.6551658597        -0.0082838954        19.9089304531        -0.0680329178        34.2852373589         0.0292460000 1
         0.6551372470        -0.0049732357        19.9073595150        -0.0436970465        34.2852316418         0.0292460000 1
         0.6551229134        -0.0016625892        19.9065609909        -0.0193582989        34.2852094983         0.0292460000 1
         0.6551228578         0.0016480475        19.9065348609         0.0049828861        34.2851710623         0.0292460000 1
         0.6551370802         0.0049586779        19.9072811629         0.0293260708        34.2851163908         0.0292460000 1
         0.6551655818         0.0082693055        19.9087999925         0.0536708177        34.2850454642         0.0292460000 1
         0.6552083651         0.0115799338        19.9110915034         0.0780166902        34.2849581860         0.0292460000 1
         0.6552654339         0.0148905664        19.9141559071         0.1023632518        34.2848543826         0.0292460000 1
         0.6553367932         0.0182012067        19.9179934727         0.1267100665        34.2847338034         0.0292460000 1
         0.6554224492         0.0215118581        19.9226045271         0.1510566981        34.2845961203         0.0292460000 1
         0.6555224093         0.0248225243        19.9279894549         0.1754027107        34.2844409275         0.0292460000 1
         0.6556366824         0.0281332085        19.9341486981         0.1997476678        34.2842677412         0.0292460000 1
         0.6557652784         0.0314439143        19.9410827562         0.2240911329        34.2840759990         0.0292460000 1
         0.6559082085         0.0347546451        19.9487921859         0.2484326686        34.2838650597         0.0292460000 1
         0.6560654853         0.0380654042        19.9572776013         0.2727718370        34.2836342026         0.0292460000 1
         0.6562371225         0.0413761950        19.9665396731         0.2971081993        34.2833826272         0.0292460000 1
         0.6564231352         0.0446870210        19.9765791293         0.3214413154        34.2831094523         0.0292460000 1
         0.6566235397         0.0479978853        19.9873967542         0.3457707440        34.2828137154         0.0292460000 1
