 Title="Shock-Particle Simulation"
 Variables = Xp, Yp, Up, Vp, Tp, Time, Onoff
 Zone T="WENO Step=    0 Time=     0.0000E+00 " I=      60
 AUXDATA Scheme = "WENO"       
 AUXDATA Step   = "    0"
 AUXDATA Time   = "    0.0000E+00"
 AUXDATA N      = "      60"
         0.1765000000        -0.0440000000         0.0000000000         0.0000000000       332.8073925147         0.0000000000 1
         0.1765000000        -0.0409655172         0.0000000000         0.0000000000       332.8073925147         0.0000000000 1
         0.1765000000        -0.0379310345         0.0000000000         0.0000000000       332.8073925147         0.0000000000 1
         0.1765000000        -0.0348965517         0.0000000000         0.0000000000       332.8073925147         0.0000000000 1
         0.1765000000        -0.0318620690         0.0000000000         0.0000000000       332.8073925147         0.0000000000 1
         0.1765000000        -0.0288275862         0.0000000000         0.0000000000       332.8073925147         0.0000000000 1
         0.1765000000        -0.0257931034         0.0000000000         0.0000000000       332.8073925147         0.0000000000 1
         0.1765000000        -0.0227586207         0.0000000000         0.0000000000       332.8073925147         0.0000000000 1
         0.1765000000        -0.0197241379         0.0000000000         0.0000000000       332.8073925147         0.0000000000 1
         0.1765000000        -0.0166896552         0.0000000000         0.0000000000       332.8073925147         0.0000000000 1
         0.1765000000        -0.0136551724         0.0000000000         0.0000000000       332.8073925147         0.0000000000 1
         0.1765000000        -0.0106206897         0.0000000000         0.0000000000       332.8073925147         0.0000000000 1
         0.1765000000        -0.0075862069         0.0000000000         0.0000000000       332.8073925147         0.0000000000 1
         0.1765000000        -0.0045517241         0.0000000000         0.0000000000       332.8073925147         0.0000000000 1
         0.1765000000        -0.0015172414         0.0000000000         0.0000000000       332.8073925147         0.0000000000 1
         0.1765000000         0.0015172414         0.0000000000         0.0000000000       332.8073925147         0.0000000000 1
         0.1765000000         0.0045517241         0.0000000000         0.0000000000       332.8073925147         0.0000000000 1
         0.1765000000         0.0075862069         0.0000000000         0.0000000000       332.8073925147         0.0000000000 1
         0.1765000000         0.0106206897         0.0000000000         0.0000000000       332.8073925147         0.0000000000 1
         0.1765000000         0.0136551724         0.0000000000         0.0000000000       332.8073925147         0.0000000000 1
         0.1765000000         0.0166896552         0.0000000000         0.0000000000       332.8073925147         0.0000000000 1
         0.1765000000         0.0197241379         0.0000000000         0.0000000000       332.8073925147         0.0000000000 1
         0.1765000000         0.0227586207         0.0000000000         0.0000000000       332.8073925147         0.0000000000 1
         0.1765000000         0.0257931034         0.0000000000         0.0000000000       332.8073925147         0.0000000000 1
         0.1765000000         0.0288275862         0.0000000000         0.0000000000       332.8073925147         0.0000000000 1
         0.1765000000         0.0318620690         0.0000000000         0.0000000000       332.8073925147         0.0000000000 1
         0.1765000000         0.0348965517         0.0000000000         0.0000000000       332.8073925147         0.0000000000 1
         0.1765000000         0.0379310345         0.0000000000         0.0000000000       332.8073925147         0.0000000000 1
         0.1765000000         0.0409655172         0.0000000000         0.0000000000       332.8073925147         0.0000000000 1
         0.1765000000         0.0440000000         0.0000000000         0.0000000000       332.8073925147         0.0000000000 1
         0.3535000000        -0.0440000000         0.0000000000         0.0000000000         1.4000000000         0.0000000000 1
         0.3535000000        -0.0409655172         0.0000000000         0.0000000000         1.4000000000         0.0000000000 1
         0.3535000000        -0.0379310345         0.0000000000         0.0000000000         1.4000000000         0.0000000000 1
         0.3535000000        -0.0348965517         0.0000000000         0.0000000000         1.4000000000         0.0000000000 1
         0.3535000000        -0.0318620690         0.0000000000         0.0000000000         1.4000000000         0.0000000000 1
         0.3535000000        -0.0288275862         0.0000000000         0.0000000000         1.4000000000         0.0000000000 1
         0.3535000000        -0.0257931034         0.0000000000         0.0000000000         1.4000000000         0.0000000000 1
         0.3535000000        -0.0227586207         0.0000000000         0.0000000000         1.4000000000         0.0000000000 1
         0.3535000000        -0.0197241379         0.0000000000         0.0000000000         1.4000000000         0.0000000000 1
         0.3535000000        -0.0166896552         0.0000000000         0.0000000000         1.4000000000         0.0000000000 1
         0.3535000000        -0.0136551724         0.0000000000         0.0000000000         1.4000000000         0.0000000000 1
         0.3535000000        -0.0106206897         0.0000000000         0.0000000000         1.4000000000         0.0000000000 1
         0.3535000000        -0.0075862069         0.0000000000         0.0000000000         1.4000000000         0.0000000000 1
         0.3535000000        -0.0045517241         0.0000000000         0.0000000000         1.4000000000         0.0000000000 1
         0.3535000000        -0.0015172414         0.0000000000         0.0000000000         1.4000000000         0.0000000000 1
         0.3535000000         0.0015172414         0.0000000000         0.0000000000         1.4000000000         0.0000000000 1
         0.3535000000         0.0045517241         0.0000000000         0.0000000000         1.4000000000         0.0000000000 1
         0.3535000000         0.0075862069         0.0000000000         0.0000000000         1.4000000000         0.0000000000 1
         0.3535000000         0.0106206897         0.0000000000         0.0000000000         1.4000000000         0.0000000000 1
         0.3535000000         0.0136551724         0.0000000000         0.0000000000         1.4000000000         0.0000000000 1
         0.3535000000         0.0166896552         0.0000000000         0.0000000000         1.4000000000         0.0000000000 1
         0.3535000000         0.0197241379         0.0000000000         0.0000000000         1.4000000000         0.0000000000 1
         0.3535000000         0.0227586207         0.0000000000         0.0000000000         1.4000000000         0.0000000000 1
         0.3535000000         0.0257931034         0.0000000000         0.0000000000         1.4000000000         0.0000000000 1
         0.3535000000         0.0288275862         0.0000000000         0.0000000000         1.4000000000         0.0000000000 1
         0.3535000000         0.0318620690         0.0000000000         0.0000000000         1.4000000000         0.0000000000 1
         0.3535000000         0.0348965517         0.0000000000         0.0000000000         1.4000000000         0.0000000000 1
         0.3535000000         0.0379310345         0.0000000000         0.0000000000         1.4000000000         0.0000000000 1
         0.3535000000         0.0409655172         0.0000000000         0.0000000000         1.4000000000         0.0000000000 1
         0.3535000000         0.0440000000         0.0000000000         0.0000000000         1.4000000000         0.0000000000 1
