 Title="Shock-Particle Simulation"
 Variables = Xp, Yp, Up, Vp, Tp, Time, Onoff
 Zone T="WENO Step=   29 Time=    12.5340E-03 " I=      60
 AUXDATA Scheme = "WENO"       
 AUXDATA Step   = "   29"
 AUXDATA Time   = "   12.5340E-03"
 AUXDATA N      = "      60"
         0.2728672677        -0.0444210925        14.1035695705        -0.1141128479       342.3730929464         0.0125340000 1
         0.2728170792        -0.0413574130        14.0962841055        -0.1065701370       342.3737403014         0.0125340000 1
         0.2727704962        -0.0382937602        14.0895206606        -0.0990312715       342.3743396372         0.0125340000 1
         0.2727273337        -0.0352152766        14.0832463902        -0.0882342205       342.3748897693         0.0125340000 1
         0.2726879606        -0.0321516144        14.0775278399        -0.0806893586       342.3753941428         0.0125340000 1
         0.2726521809        -0.0290879782        14.0723299472        -0.0731483824       342.3758514218         0.0125340000 1
         0.2726199910        -0.0260243662        14.0676523246        -0.0656109220       342.3762618626         0.0125340000 1
         0.2725913880        -0.0229607766        14.0634946235        -0.0580766074       342.3766256960         0.0125340000 1
         0.2725663691        -0.0198972074        14.0598565349        -0.0505450693       342.3769431278         0.0125340000 1
         0.2725449319        -0.0168336567        14.0567377888        -0.0430159382       342.3772143385         0.0125340000 1
         0.2725270744        -0.0137701227        14.0541381547        -0.0354888452       342.3774394834         0.0125340000 1
         0.2725127947        -0.0107066034        14.0520574409        -0.0279634214       342.3776186924         0.0125340000 1
         0.2725020916        -0.0076430971        14.0504954953        -0.0204392979       342.3777520702         0.0125340000 1
         0.2724949640        -0.0045796018        14.0494522047        -0.0129161064       342.3778396964         0.0125340000 1
         0.2724914112        -0.0015161156        14.0489274950        -0.0053934782       342.3778816251         0.0125340000 1
         0.2724914327         0.0015474537        14.0489213365         0.0021344067       342.3778778855         0.0125340000 1
         0.2724950287         0.0046109271        14.0494337321         0.0096570112       342.3778284798         0.0125340000 1
         0.2725021994         0.0076743971        14.0504647215         0.0171801552       342.3777333879         0.0125340000 1
         0.2725129455         0.0107378653        14.0520143871         0.0247042071       342.3775925628         0.0125340000 1
         0.2725272678         0.0138013337        14.0540828507         0.0322295350       342.3774059326         0.0125340000 1
         0.2725451679         0.0168648041        14.0566702731         0.0397565074       342.3771733999         0.0125340000 1
         0.2725666472         0.0199282785        14.0597768543         0.0472854926       342.3768948422         0.0125340000 1
         0.2725917079         0.0229917586        14.0634028336         0.0548168591       342.3765701115         0.0125340000 1
         0.2726203522         0.0260552464        14.0675484894         0.0623509755       342.3761990349         0.0125340000 1
         0.2726525828         0.0291187437        14.0722141395         0.0698882105       342.3757814139         0.0125340000 1
         0.2726884029         0.0321822524        14.0774001409         0.0774289329       342.3753170249         0.0125340000 1
         0.2727278156         0.0352457744        14.0831068899         0.0849735120       342.3748056191         0.0125340000 1
         0.2727707008         0.0382945208        14.0893088281         0.0892743980       342.3742457236         0.0125340000 1
         0.2728172984         0.0413581425        14.0960561386         0.0968426803       342.3736393494         0.0125340000 1
         0.2728675011         0.0444217883        14.1033256572         0.1044170807       342.3729850650         0.0125340000 1
         0.4002569557        -0.0443549301         9.0660756598        -0.1059788633        13.7417762912         0.0125340000 1
         0.4002171988        -0.0412959375         9.0588062334        -0.0990051316        13.7409106146         0.0125340000 1
         0.4001803081        -0.0382369736         9.0520586120        -0.0920363382        13.7401038902         0.0125340000 1
         0.4001462779        -0.0351780364         9.0458321031        -0.0850720298        13.7393566962         0.0125340000 1
         0.4001151026        -0.0321191237         9.0401260702        -0.0781117529        13.7386695658         0.0125340000 1
         0.4000867775        -0.0290602334         9.0349399318        -0.0711550537        13.7380429880         0.0125340000 1
         0.4000612979        -0.0260013635         9.0302731613        -0.0642014784        13.7374774072         0.0125340000 1
         0.4000386599        -0.0229425118         9.0261252864        -0.0572505727        13.7369732235         0.0125340000 1
         0.4000188599        -0.0198836762         9.0224958887        -0.0503018824        13.7365307929         0.0125340000 1
         0.4000018949        -0.0168248546         9.0193846039        -0.0433549531        13.7361504272         0.0125340000 1
         0.3999877620        -0.0137660449         9.0167911208        -0.0364093299        13.7358323940         0.0125340000 1
         0.3999764592        -0.0107072451         9.0147151815        -0.0294645582        13.7355769170         0.0125340000 1
         0.3999679846        -0.0076484531         9.0131565813        -0.0225201828        13.7353841760         0.0125340000 1
         0.3999623369        -0.0045896667         9.0121151683        -0.0155757486        13.7352543069         0.0125340000 1
         0.3999595152        -0.0015308839         9.0115908431        -0.0086308003        13.7351874014         0.0125340000 1
         0.3999595191         0.0015278973         9.0115835594        -0.0016848823        13.7351835078         0.0125340000 1
         0.3999623485         0.0045866792         9.0120933233         0.0052624609        13.7352426302         0.0125340000 1
         0.3999680040         0.0076454637         9.0131201936         0.0122116850        13.7353647288         0.0125340000 1
         0.3999764863         0.0107042530         9.0146642817         0.0191632459        13.7355497202         0.0125340000 1
         0.3999877967         0.0137630491         9.0167257521         0.0261175996        13.7357974769         0.0125340000 1
         0.4000019371         0.0168218541         9.0193048216         0.0330752021        13.7361078275         0.0125340000 1
         0.4000189097         0.0198806701         9.0224017606         0.0400365096        13.7364805565         0.0125340000 1
         0.4000387170         0.0229394993         9.0260168924         0.0470019782        13.7369154046         0.0125340000 1
         0.4000613623         0.0259983436         9.0301505938         0.0539720643        13.7374120682         0.0125340000 1
         0.4000868490         0.0290572052         9.0348032953         0.0609472243        13.7379701996         0.0125340000 1
         0.4001151811         0.0321160862         9.0399754815         0.0679279145        13.7385894069         0.0125340000 1
         0.4001463632         0.0351749887         9.0456676913         0.0749145915        13.7392692536         0.0125340000 1
         0.4001804001         0.0382339148         9.0518805185         0.0819077118        13.7400092591         0.0125340000 1
         0.4002172971         0.0412928666         9.0586146120         0.0889077321        13.7408088978         0.0125340000 1
         0.4002570603         0.0443518462         9.0658706762         0.0959151090        13.7416675997         0.0125340000 1
