 Title="Shock-Particle Simulation"
 Variables = Xp, Yp, Up, Vp, Tp, Time, Onoff
 Zone T="WENO Step=  128 Time=    54.3140E-03 " I=      60
 AUXDATA Scheme = "WENO"       
 AUXDATA Step   = "  128"
 AUXDATA Time   = "   54.3140E-03"
 AUXDATA N      = "      60"
         1.2073167327        -0.0620770103        27.3515796707        -0.6597703664       368.8645145767         0.0543140000 1
         1.2068444224        -0.0577824896        27.3395561794        -0.6139243002       368.8675534304         0.0543140000 1
         1.2064062180        -0.0534880287        27.3284069659        -0.5680589057       368.8703865453         0.0543140000 1
         1.2059979614        -0.0490974519        27.3179525665        -0.5206162034       368.8730207782         0.0543140000 1
         1.2056281381        -0.0448027491        27.3085598107        -0.4747103453       368.8754420215         0.0543140000 1
         1.2052922642        -0.0405081515        27.3000347776        -0.4287901976       368.8776575555         0.0543140000 1
         1.2049902945        -0.0362136635        27.2923755698        -0.3828572849       368.8796673464         0.0543140000 1
         1.2047221881        -0.0319192899        27.2855804660        -0.3369131483       368.8814713399         0.0543140000 1
         1.2044879080        -0.0276250358        27.2796479217        -0.2909593441       368.8830694635         0.0543140000 1
         1.2042874219        -0.0233309065        27.2745765694        -0.2449974432       368.8844616277         0.0543140000 1
         1.2041207014        -0.0190369076        27.2703652186        -0.1990290294       368.8856477276         0.0543140000 1
         1.2039877391        -0.0147430458        27.2670179612        -0.1530559899       368.8866312390         0.0543140000 1
         1.2038885031        -0.0104493264        27.2645302743        -0.1070797005       368.8874094162         0.0543140000 1
         1.2038229665        -0.0061557547        27.2628978706        -0.0611015759       368.8879795754         0.0543140000 1
         1.2037911179        -0.0018623369        27.2621202700        -0.0151232519       368.8883415525         0.0543140000 1
         1.2037929510         0.0024311697        27.2621971958         0.0308571534       368.8884951712         0.0543140000 1
         1.2038284632         0.0067242610        27.2631285174         0.0768309387       368.8884402375         0.0543140000 1
         1.2038976555         0.0110171798        27.2649142709         0.1227999743       368.8881765502         0.0543140000 1
         1.2040005338         0.0153099201        27.2675546888         0.1687626017       368.8877038898         0.0543140000 1
         1.2041371233         0.0196024752        27.2710548423         0.2147169615       368.8870252779         0.0543140000 1
         1.2043074444         0.0238948393        27.2754171557         0.2606613425       368.8861417710         0.0543140000 1
         1.2045115018         0.0281870073        27.2806380950         0.3065942862       368.8850500582         0.0543140000 1
         1.2047493185         0.0324789739        27.2867185968         0.3525141433       368.8837498337         0.0543140000 1
         1.2050209216         0.0367707341        27.2936597734         0.3984192667       368.8822407654         0.0543140000 1
         1.2053263424         0.0410622831        27.3014629119         0.4443080113       368.8805224925         0.0543140000 1
         1.2056656166         0.0453536164        27.3101294739         0.4901787355       368.8785946223         0.0543140000 1
         1.2060387837         0.0496447298        27.3196610946         0.5360298017       368.8764567273         0.0543140000 1
         1.2064416043         0.0538399130        27.3298662645         0.5803082094       368.8741149584         0.0543140000 1
         1.2068823639         0.0581310213        27.3411190502         0.6261225493       368.8715561487         0.0543140000 1
         1.2073571652         0.0624219339        27.3532430302         0.6719129182       368.8687857848         0.0543140000 1
         1.2509259151        -0.0618586980        26.8410842199        -0.6620116799        56.2124813893         0.0543140000 1
         1.2504020830        -0.0575875504        26.8272502739        -0.6162505271        56.2140589377         0.0543140000 1
         1.2499159813        -0.0533160306        26.8144177155        -0.5704521127        56.2155343036         0.0543140000 1
         1.2494675569        -0.0490441724        26.8025842766        -0.5246194171        56.2169079159         0.0543140000 1
         1.2490567900        -0.0447720119        26.7917541857        -0.4787558815        56.2181865110         0.0543140000 1
         1.2486836779        -0.0404995857        26.7819346248        -0.4328651030        56.2193795844         0.0543140000 1
         1.2483480963        -0.0362269217        26.7731061823        -0.3869487196        56.2204695483         0.0543140000 1
         1.2480500072        -0.0319540539        26.7652672317        -0.3410096969        56.2214565000         0.0543140000 1
         1.2477893765        -0.0276810161        26.7584163119        -0.2950509985        56.2223404681         0.0543140000 1
         1.2475661743        -0.0234078422        26.7525521284        -0.2490755868        56.2231214142         0.0543140000 1
         1.2473803743        -0.0191345661        26.7476735534        -0.2030864242        56.2237992365         0.0543140000 1
         1.2472319541        -0.0148612219        26.7437796271        -0.1570864739        56.2243737708         0.0543140000 1
         1.2471208955        -0.0105878435        26.7408695575        -0.1110787010        56.2248447934         0.0543140000 1
         1.2470471839        -0.0063144651        26.7389427213        -0.0650660729        56.2252120224         0.0543140000 1
         1.2470108089        -0.0020411209        26.7379986639        -0.0190515604        56.2254751190         0.0543140000 1
         1.2470117640         0.0022321549        26.7380370999         0.0269618616        56.2256336891         0.0543140000 1
         1.2470500465         0.0065053280        26.7390579127         0.0729712132        56.2256872841         0.0543140000 1
         1.2471256578         0.0107783640        26.7410611552         0.1189735094        56.2256354015         0.0543140000 1
         1.2472386032         0.0150512282        26.7440470492         0.1649657584        56.2254774856         0.0543140000 1
         1.2473888920         0.0193238860        26.7480159856         0.2109449618        56.2252129277         0.0543140000 1
         1.2475765375         0.0235963029        26.7529685238         0.2569081134        56.2248410660         0.0543140000 1
         1.2478015569         0.0278684438        26.7589053917         0.3028521985        56.2243611854         0.0543140000 1
         1.2480639713         0.0321402739        26.7658274849         0.3487741930        56.2237725169         0.0543140000 1
         1.2483638059         0.0364117580        26.7737358667         0.3946710632        56.2230742372         0.0543140000 1
         1.2487010897         0.0406828611        26.7826317671         0.4405397641        56.2222654671         0.0543140000 1
         1.2490758559         0.0449535478        26.7925165821         0.4863772392        56.2213452710         0.0543140000 1
         1.2494882291         0.0492237801        26.8034105756         0.5321798363        56.2203315320         0.0543140000 1
         1.2499381973         0.0534935244        26.8153042038         0.5779449283        56.2192117826         0.0543140000 1
         1.2504257805         0.0577627458        26.8281940464         0.6236696126        56.2179795314         0.0543140000 1
         1.2509510275         0.0620314084        26.8420821437         0.6693507935        56.2166335743         0.0543140000 1
