 Title="Shock-Particle Simulation"
 Variables = Xp, Yp, Up, Vp, Tp, Time, Onoff
 Zone T="WENO Step=   48 Time=   847.0000E-06 " I=      10
         0.1750000000        -0.0440000000         0.0000014119         0.0000000015         1.4000003368         0.0008470000 1
         0.1750000000        -0.0342222222         0.0000014119         0.0000000004         1.4000003368         0.0008470000 1
         0.1750000000        -0.0244444444         0.0000014119         0.0000000004         1.4000003368         0.0008470000 1
         0.1750000000        -0.0146666667         0.0000014119         0.0000000004         1.4000003368         0.0008470000 1
         0.1750000000        -0.0048888889         0.0000014119         0.0000000004         1.4000003368         0.0008470000 1
         0.1750000000         0.0048888889         0.0000014119         0.0000000011         1.4000003368         0.0008470000 1
         0.1750000000         0.0146666667         0.0000014119         0.0000000011         1.4000003368         0.0008470000 1
         0.1750000000         0.0244444444         0.0000014119         0.0000000011         1.4000003368         0.0008470000 1
         0.1750000000         0.0342222222         0.0000014119         0.0000000011         1.4000003368         0.0008470000 1
         0.1750000000         0.0440000000         0.0000014119         0.0000000011         1.4000003368         0.0008470000 1
