 Title="Shock-Particle Simulation"
 Variables = Xp, Yp, Up, Vp, Tp, Time, Onoff
 Zone T="WENO Step=  108 Time=    45.9580E-03 " I=      60
 AUXDATA Scheme = "WENO"       
 AUXDATA Step   = "  108"
 AUXDATA Time   = "   45.9580E-03"
 AUXDATA N      = "      60"
         0.9854154398        -0.0567586934        25.6992939879        -0.5922318069       365.0611253312         0.0459580000 1
         0.9850406706        -0.0528411166        25.6877805924        -0.5487980903       365.0636929069         0.0459580000 1
         0.9846928897        -0.0489236346        25.6771109902        -0.5053804380       365.0660940019         0.0459580000 1
         0.9843692851        -0.0449234928        25.6671402039        -0.4603330196       365.0683409976         0.0459580000 1
         0.9840755956        -0.0410058638        25.6581637378        -0.4169428791       365.0704081046         0.0459580000 1
         0.9838087912        -0.0370883436        25.6500250720        -0.3735708107       365.0723087482         0.0459580000 1
         0.9835688425        -0.0331709274        25.6427224426        -0.3302173141       365.0740428723         0.0459580000 1
         0.9833557225        -0.0292536107        25.6362542291        -0.2868829006       365.0756103903         0.0459580000 1
         0.9831694073        -0.0253363894        25.6306189552        -0.2435680914       365.0770111870         0.0459580000 1
         0.9830098757        -0.0214192592        25.6258152896        -0.2002734151       365.0782451201         0.0459580000 1
         0.9828771097        -0.0175022163        25.6218420466        -0.1569994065       365.0793120218         0.0459580000 1
         0.9827710937        -0.0135852566        25.6186981869        -0.1137466044       365.0802116997         0.0459580000 1
         0.9826918154        -0.0096683765        25.6163828181        -0.0705155494       365.0809439376         0.0459580000 1
         0.9826392651        -0.0057515721        25.6148951948        -0.0273067819       365.0815084960         0.0459580000 1
         0.9826134362        -0.0018348397        25.6142347195         0.0158791596       365.0819051122         0.0459580000 1
         0.9826143252         0.0020820433        25.6144009640         0.0590453363       365.0821334991         0.0459580000 1
         0.9826419311         0.0059986427        25.6153936212         0.1021840271       365.0821933468         0.0459580000 1
         0.9826962555         0.0099151812        25.6172125215         0.1452983089       365.0820843238         0.0459580000 1
         0.9827773031         0.0138316628        25.6198576597         0.1883876723       365.0818060717         0.0459580000 1
         0.9828850817         0.0177480914        25.6233291791         0.2314516202       365.0813582060         0.0459580000 1
         0.9830196018         0.0216644710        25.6276273708         0.2744896696       365.0807403150         0.0459580000 1
         0.9831808769         0.0255808060        25.6327526742         0.3175013539       365.0799519577         0.0459580000 1
         0.9833689231         0.0294971007        25.6387056763         0.3604862241       365.0789926624         0.0459580000 1
         0.9835837596         0.0334133598        25.6454871117         0.4034438512       365.0778619247         0.0459580000 1
         0.9838254084         0.0373295880        25.6530978618         0.4463738275       365.0765592046         0.0459580000 1
         0.9840938942         0.0412457904        25.6615389548         0.4892757685       365.0750839251         0.0459580000 1
         0.9843892448         0.0451619724        25.6708115652         0.5321493142       365.0734354683         0.0459580000 1
         0.9847086465         0.0489957585        25.6807644413         0.5733658161       365.0716301696         0.0459580000 1
         0.9850575997         0.0529122970        25.6916925914         0.6161896278       365.0696345104         0.0459580000 1
         0.9854335202         0.0568288619        25.7034568066         0.6589847051       365.0674635354         0.0459580000 1
         1.0342376855        -0.0564906105        24.9618435858        -0.6042443748        49.8806008219         0.0459580000 1
         1.0338255854        -0.0525969257        24.9486759525        -0.5604875941        49.8817912236         0.0459580000 1
         1.0334431067        -0.0487030722        24.9364664352        -0.5167255193        49.8829143161         0.0459580000 1
         1.0330902151        -0.0448090621        24.9252129966        -0.4729601056        49.8839704379         0.0459580000 1
         1.0327668787        -0.0409149074        24.9149137304        -0.4291932998        49.8849598386         0.0459580000 1
         1.0324730681        -0.0370206203        24.9055668623        -0.3854270407        49.8858826822         0.0459580000 1
         1.0322087564        -0.0331262131        24.8971707515        -0.3416632600        49.8867390503         0.0459580000 1
         1.0319739194        -0.0292316977        24.8897238917        -0.2979038826        49.8875289457         0.0459580000 1
         1.0317685353        -0.0253370866        24.8832249120        -0.2541508273        49.8882522955         0.0459580000 1
         1.0315925849        -0.0214423918        24.8776725784        -0.2104060064        49.8889089534         0.0459580000 1
         1.0314460517        -0.0175476258        24.8730657942        -0.1666713267        49.8894987030         0.0459580000 1
         1.0313289216        -0.0136528007        24.8694036011        -0.1229486890        49.8900212598         0.0459580000 1
         1.0312411833        -0.0097579291        24.8666851798        -0.0792399887        49.8904762735         0.0459580000 1
         1.0311828277        -0.0058630234        24.8649098507        -0.0355471154        49.8908633301         0.0459580000 1
         1.0311538488        -0.0019680961        24.8640770747         0.0081280470        49.8911819538         0.0459580000 1
         1.0311542427         0.0019268403        24.8641864533         0.0517836203        49.8914316083         0.0459580000 1
         1.0311840084         0.0058217731        24.8652377295         0.0954177321        49.8916116985         0.0459580000 1
         1.0312431474         0.0097166897        24.8672307877         0.1390285161        49.8917215715         0.0459580000 1
         1.0313316639         0.0136115772        24.8701656546         0.1826141124        49.8917605175         0.0459580000 1
         1.0314495646         0.0175064228        24.8740424985         0.2261726670        49.8917277707         0.0459580000 1
         1.0315968587         0.0214012137        24.8788616304         0.2697023330        49.8916225095         0.0459580000 1
         1.0317735582         0.0252959368        24.8846235034         0.3132012699        49.8914438573         0.0459580000 1
         1.0319796777         0.0291905792        24.8913287129         0.3566676443        49.8911908819         0.0459580000 1
         1.0322152342         0.0330851277        24.8989779966         0.4000996298        49.8908625959         0.0459580000 1
         1.0324802476         0.0369795690        24.9075722341         0.4434954075        49.8904579562         0.0459580000 1
         1.0327747401         0.0408738901        24.9171124470         0.4868531657        49.8899758633         0.0459580000 1
         1.0330987367         0.0447680773        24.9275997982         0.5301711001        49.8894151604         0.0459580000 1
         1.0334522651         0.0486621175        24.9390355918         0.5734474142        49.8887746328         0.0459580000 1
         1.0338353552         0.0525559970        24.9514212726         0.6166803188        49.8880530062         0.0459580000 1
         1.0342480399         0.0564497022        24.9647584255         0.6598680322        49.8872489456         0.0459580000 1
