 Title="Shock-Particle Simulation"
 Variables = Xp, Yp, Up, Vp, Tp, Time, Onoff
 Zone T="WENO Step=   55 Time=   968.0000E-06 " I=      10
         0.1750000017        -0.0440000000         0.0000481123         0.0000001650         1.4000372714         0.0009680000 1
         0.1750000017        -0.0342222222         0.0000481116         0.0000000469         1.4000372725         0.0009680000 1
         0.1750000017        -0.0244444444         0.0000481105         0.0000000472         1.4000372713         0.0009680000 1
         0.1750000017        -0.0146666667         0.0000481093         0.0000000475         1.4000372701         0.0009680000 1
         0.1750000017        -0.0048888889         0.0000481081         0.0000000479         1.4000372689         0.0009680000 1
         0.1750000017         0.0048888889         0.0000481081         0.0000001275         1.4000372689         0.0009680000 1
         0.1750000017         0.0146666667         0.0000481093         0.0000001275         1.4000372701         0.0009680000 1
         0.1750000017         0.0244444444         0.0000481105         0.0000001275         1.4000372713         0.0009680000 1
         0.1750000017         0.0342222222         0.0000481116         0.0000001275         1.4000372725         0.0009680000 1
         0.1750000017         0.0440000000         0.0000481123         0.0000001175         1.4000372714         0.0009680000 1
