 Title="Shock-Particle Simulation"
 Variables = Xp, Yp, Up, Vp, Tp, Time, Onoff
 Zone T="WENO Step=   59 Time=    25.0680E-03 " I=      60
 AUXDATA Scheme = "WENO"       
 AUXDATA Step   = "   59"
 AUXDATA Time   = "   25.0680E-03"
 AUXDATA N      = "      60"
         0.4960048208        -0.0469365273        20.8687574622        -0.2878838550       352.7349457556         0.0250680000 1
         0.4958501183        -0.0436968264        20.8596333715        -0.2675649212       352.7368115357         0.0250680000 1
         0.4957065201        -0.0404572155        20.8511646911        -0.2472491787       352.7385415044         0.0250680000 1
         0.4955733237        -0.0371714759        20.8432907442        -0.2249558119       352.7401488942         0.0250680000 1
         0.4954519506        -0.0339318517        20.8361356376        -0.2046388630       352.7416077614         0.0250680000 1
         0.4953416495        -0.0306923189        20.8296339901        -0.1843258900       352.7429322996         0.0250680000 1
         0.4952424110        -0.0274528725        20.8237852382        -0.1640169192       352.7441229228         0.0250680000 1
         0.4951542271        -0.0242135074        20.8185888725        -0.1437119766       352.7451800030         0.0250680000 1
         0.4950770901        -0.0209742187        20.8140444385        -0.1234110884       352.7461038702         0.0250680000 1
         0.4950109937        -0.0177350015        20.8101515362        -0.1031142807       352.7468948124         0.0250680000 1
         0.4949559323        -0.0144958508        20.8069098203        -0.0828215794       352.7475530761         0.0250680000 1
         0.4949119013        -0.0112567615        20.8043189999        -0.0625330107       352.7480788658         0.0250680000 1
         0.4948788968        -0.0080177288        20.8023788392        -0.0422486006       352.7484723447         0.0250680000 1
         0.4948569160        -0.0047787476        20.8010891568        -0.0219683750       352.7487336342         0.0250680000 1
         0.4948459570        -0.0015398131        20.8004498261        -0.0016923597       352.7488628144         0.0250680000 1
         0.4948460189         0.0016992248        20.8004607850         0.0185830699       352.7488599212         0.0250680000 1
         0.4948571015         0.0049380810        20.8011220180         0.0388505857       352.7487249541         0.0250680000 1
         0.4948792056         0.0081769054        20.8024335515         0.0591138127       352.7484578691         0.0250680000 1
         0.4949123328         0.0114157030        20.8043954777         0.0793727254       352.7480585803         0.0250680000 1
         0.4949564857         0.0146544787        20.8070079439         0.0996272986       352.7475269608         0.0250680000 1
         0.4950116679         0.0178932376        20.8102711519         0.1198775070       352.7468628417         0.0250680000 1
         0.4950778838         0.0211319845        20.8141853583         0.1401233259       352.7460660130         0.0250680000 1
         0.4951551388         0.0243707244        20.8187508744         0.1603647303       352.7451362229         0.0250680000 1
         0.4952434390         0.0276094624        20.8239680663         0.1806016958       352.7440731781         0.0250680000 1
         0.4953427916         0.0308482033        20.8298373547         0.2008341979       352.7428765435         0.0250680000 1
         0.4954532048         0.0340869522        20.8363592148         0.2210622127       352.7415459423         0.0250680000 1
         0.4955746875         0.0373257140        20.8435341768         0.2412857163       352.7400809557         0.0250680000 1
         0.4957066551         0.0405184852        20.8513016278         0.2595332310       352.7384946497         0.0250680000 1
         0.4958502568         0.0437574995        20.8597798374         0.2797567973       352.7367604966         0.0250680000 1
         0.4960049612         0.0469965579        20.8689131312         0.2999764870       352.7348904352         0.0250680000 1
         0.5764608099        -0.0466988168        18.2743551573        -0.2698947021        29.7099633459         0.0250680000 1
         0.5763046731        -0.0434773852        18.2639150331        -0.2510431648        29.7099014569         0.0250680000 1
         0.5761597448        -0.0402560321        18.2542233572        -0.2321909586        29.7098390758         0.0250680000 1
         0.5760260114        -0.0370347525        18.2452795115        -0.2133383229        29.7097772117         0.0250680000 1
         0.5759034607        -0.0338135418        18.2370829250        -0.1944854939        29.7097167944         0.0250680000 1
         0.5757920812        -0.0305923952        18.2296330737        -0.1756327041        29.7096586750         0.0250680000 1
         0.5756918627        -0.0273713079        18.2229294808        -0.1567801831        29.7096036262         0.0250680000 1
         0.5756027959        -0.0241502750        18.2169717165        -0.1379281577        29.7095523424         0.0250680000 1
         0.5755248727        -0.0209292917        18.2117593986        -0.1190768522        29.7095054404         0.0250680000 1
         0.5754580859        -0.0177083532        18.2072921916        -0.1002264885        29.7094634589         0.0250680000 1
         0.5754024292        -0.0144874545        18.2035698076        -0.0813772866        29.7094268598         0.0250680000 1
         0.5753578978        -0.0112665908        18.2005920059        -0.0625294648        29.7093960273         0.0250680000 1
         0.5753244874        -0.0080457573        18.1983585928        -0.0436832399        29.7093712687         0.0250680000 1
         0.5753021950        -0.0048249490        18.1968694220        -0.0248388275        29.7093528145         0.0250680000 1
         0.5752910186        -0.0016041609        18.1961243947        -0.0059964422        29.7093408181         0.0250680000 1
         0.5752909573         0.0016166117        18.1961234592         0.0128437019        29.7093353563         0.0250680000 1
         0.5753020109         0.0048373738        18.1968666110         0.0316813913        29.7093364290         0.0250680000 1
         0.5753241807         0.0080581304        18.1983538931         0.0505164127        29.7093439596         0.0250680000 1
         0.5753574686         0.0112788863        18.2005853956         0.0693485525        29.7093577944         0.0250680000 1
         0.5754018777         0.0144996465        18.2035612563         0.0881775971        29.7093777032         0.0250680000 1
         0.5754574122         0.0177204159        18.2072816598         0.1070033320        29.7094033788         0.0250680000 1
         0.5755240772         0.0209411994        18.2117468384         0.1258255419        29.7094344367         0.0250680000 1
         0.5756018790         0.0241620018        18.2169570717         0.1446440106        29.7094704155         0.0250680000 1
         0.5756908246         0.0273828282        18.2229126863         0.1634585203        29.7095107765         0.0250680000 1
         0.5757909224         0.0306036833        18.2296140564         0.1822688516        29.7095549033         0.0250680000 1
         0.5759021817         0.0338245721        18.2370616034         0.2010747834        29.7096021017         0.0250680000 1
         0.5760246128         0.0370454994        18.2452557960         0.2198760921        29.7096515995         0.0250680000 1
         0.5761582270         0.0402664700        18.2541971501         0.2386725521        29.7097025460         0.0250680000 1
         0.5763030370         0.0434874889        18.2638862291         0.2574639347        29.7097540121         0.0250680000 1
         0.5764590560         0.0467085609        18.2743236433         0.2762500084        29.7098049893         0.0250680000 1
