 Title="Shock-Particle Simulation"
 Variables = Xp, Yp, Up, Vp, Tp, Time, Onoff
 Zone T="WENO Step=  105 Time=     1.8150E-03 " I=      10
         0.1750239273        -0.0440024054         0.0609898929        -0.0131973534         1.8692598069         0.0018150000 1
         0.1750238697        -0.0342219908         0.0593412694         0.0014449374         1.8813585881         0.0018150000 1
         0.1750239030        -0.0244441746         0.0595171649         0.0021694726         1.8818920852         0.0018150000 1
         0.1750239031        -0.0146665071         0.0595241755         0.0018760423         1.8817388495         0.0018150000 1
         0.1750239183        -0.0048889085         0.0596597867         0.0019052794         1.8810060001         0.0018150000 1
         0.1750239182         0.0048871853         0.0596635210        -0.0062699031         1.8809948800         0.0018150000 1
         0.1750239026         0.0146647201         0.0595209709        -0.0063462183         1.8817201848         0.0018150000 1
         0.1750239025         0.0244424361         0.0595134113        -0.0064186096         1.8818738492         0.0018150000 1
         0.1750238692         0.0342202520         0.0593367313        -0.0055213003         1.8813419468         0.0018150000 1
         0.1750239275         0.0440010273         0.0609916485         0.0094084177         1.8692632338         0.0018150000 1
