 Title="Shock-Particle Simulation"
 Variables = Xp, Yp, Up, Vp, Tp, Time, Onoff
 Zone T="WENO Step=   98 Time=    41.7800E-03 " I=      60
 AUXDATA Scheme = "WENO"       
 AUXDATA Step   = "   98"
 AUXDATA Time   = "   41.7800E-03"
 AUXDATA N      = "      60"
         0.8800393524        -0.0542292204        24.7432632667        -0.5839441076       362.8500127487         0.0417800000 1
         0.8797130474        -0.0504842309        24.7317061167        -0.5446216865       362.8520177367         0.0417800000 1
         0.8794102338        -0.0467393592        24.7209799089        -0.5052928083       362.8538845007         0.0417800000 1
         0.8791286667        -0.0429187569        24.7109572267        -0.4642916473       362.8556273804         0.0417800000 1
         0.8788729253        -0.0391738095        24.7018990657        -0.4249430294       362.8572179166         0.0417800000 1
         0.8786405919        -0.0354289891        24.6936677694        -0.3855883961       362.8586714238         0.0417800000 1
         0.8784316427        -0.0316842904        24.6862621704        -0.3462277367       362.8599882250         0.0417800000 1
         0.8782460557        -0.0279397079        24.6796812214        -0.3068610575       362.8611686058         0.0417800000 1
         0.8780838115        -0.0241952364        24.6739239954        -0.2674883791       362.8622128151         0.0417800000 1
         0.8779448931        -0.0204508707        24.6689896863        -0.2281097349       362.8631210668         0.0417800000 1
         0.8778292855        -0.0167066058        24.6648776093        -0.1887251687       362.8638935398         0.0417800000 1
         0.8777369762        -0.0129624368        24.6615872012        -0.1493347330       362.8645303792         0.0417800000 1
         0.8776679550        -0.0092183587        24.6591180208        -0.1099384862       362.8650316964         0.0417800000 1
         0.8776222140        -0.0054743667        24.6574697485        -0.0705364914       362.8653975688         0.0417800000 1
         0.8775997477        -0.0017304559        24.6566421872        -0.0311288135       362.8656280402         0.0417800000 1
         0.8776005531         0.0020135824        24.6566352800         0.0082880394       362.8657231201         0.0417800000 1
         0.8776246292         0.0057573452        24.6574490722         0.0477068889       362.8656827800         0.0417800000 1
         0.8776719772         0.0095010412        24.6590837153         0.0871312329       362.8655069610         0.0417800000 1
         0.8777426006         0.0132446754        24.6615394996         0.1265610182       362.8651955645         0.0417800000 1
         0.8778365056         0.0169882527        24.6648168364         0.1659961999       362.8647484536         0.0417800000 1
         0.8779537003         0.0207317782        24.6689162577         0.2054367427       362.8641654515         0.0417800000 1
         0.8780941954         0.0244752570        24.6738384162         0.2448826234       362.8634463395         0.0417800000 1
         0.8782580038         0.0282186944        24.6795840842         0.2843338322       362.8625908555         0.0417800000 1
         0.8784451408         0.0319620957        24.6861541529         0.3237903746       362.8615986914         0.0417800000 1
         0.8786556238         0.0357054665        24.6935496323         0.3632522732       362.8604694910         0.0417800000 1
         0.8788894726         0.0394488123        24.7017716499         0.4027195688       362.8592028471         0.0417800000 1
         0.8791467093         0.0431921390        24.7108214497         0.4421923225       362.8577982994         0.0417800000 1
         0.8794251213         0.0468599545        24.7205635621         0.4800089256       362.8562686975         0.0417800000 1
         0.8797290341         0.0506036099        24.7312627741         0.5195004423       362.8545878226         0.0417800000 1
         0.8800564170         0.0543472915        24.7427943280         0.5589983284       362.8527672992         0.0417800000 1
         0.9323059433        -0.0539153164        23.8170110867        -0.5944043901        46.2715933437         0.0417800000 1
         0.9319494222        -0.0501958905        23.8036796754        -0.5546688171        46.2719100522         0.0417800000 1
         0.9316185242        -0.0464764016        23.7913045682        -0.5149084142        46.2722071446         0.0417800000 1
         0.9313132214        -0.0427568557        23.7798844941        -0.4751242979        46.2724855950         0.0417800000 1
         0.9310334879        -0.0390372589        23.7694182776        -0.4353175926        46.2727462702         0.0417800000 1
         0.9307792999        -0.0353176172        23.7599048392        -0.3954894312        46.2729899323         0.0417800000 1
         0.9305506356        -0.0315979368        23.7513431968        -0.3556409544        46.2732172414         0.0417800000 1
         0.9303474753        -0.0278782236        23.7437324660        -0.3157733117        46.2734287574         0.0417800000 1
         0.9301698013        -0.0241584837        23.7370718611        -0.2758876610        46.2736249428         0.0417800000 1
         0.9300175981        -0.0204387232        23.7313606957        -0.2359851682        46.2738061645         0.0417800000 1
         0.9298908522        -0.0167189483        23.7265983832        -0.1960670078        46.2739726956         0.0417800000 1
         0.9297895520        -0.0129991650        23.7227844374        -0.1561343622        46.2741247176         0.0417800000 1
         0.9297136883        -0.0092793795        23.7199184727        -0.1161884220        46.2742623213         0.0417800000 1
         0.9296632537        -0.0055595980        23.7180002047        -0.0762303851        46.2743855090         0.0417800000 1
         0.9296382432        -0.0018398268        23.7170294506        -0.0362614572        46.2744941952         0.0417800000 1
         0.9296386534         0.0018799278        23.7170061290         0.0037171493        46.2745882081         0.0417800000 1
         0.9296644836         0.0055996596        23.7179302603         0.0437042147        46.2746672902         0.0417800000 1
         0.9297157346         0.0093193621        23.7198019668         0.0836985133        46.2747310992         0.0417800000 1
         0.9297924096         0.0130390288        23.7226214726         0.1236988128        46.2747792089         0.0417800000 1
         0.9298945140         0.0167586533        23.7263891036         0.1637038754        46.2748111090         0.0417800000 1
         0.9300220551         0.0204782290        23.7311052871         0.2037124578        46.2748262058         0.0417800000 1
         0.9301750423         0.0241977493        23.7367705521         0.2437233115        46.2748238218         0.0417800000 1
         0.9303534871         0.0279172074        23.7433855284         0.2837351832        46.2748031961         0.0417800000 1
         0.9305574033         0.0316365968        23.7509509466         0.3237468153        46.2747634837         0.0417800000 1
         0.9307868065         0.0353559104        23.7594676375         0.3637569459        46.2747037549         0.0417800000 1
         0.9310417147         0.0390751415        23.7689365316         0.4037643090        46.2746229949         0.0417800000 1
         0.9313221477         0.0427942830        23.7793586585         0.4437676351        46.2745201028         0.0417800000 1
         0.9316281277         0.0465133279        23.7907351464         0.4837656510        46.2743938901         0.0417800000 1
         0.9319596789         0.0502322691        23.8030672209         0.5237570803        46.2742430802         0.0417800000 1
         0.9323168274         0.0539510994        23.8163562046         0.5637406431        46.2740663065         0.0417800000 1
