 Title="Shock-Particle Simulation"
 Variables = Xp, Yp, Up, Vp, Tp, Time, Onoff
 Zone T="WENO Step=  138 Time=    58.4920E-03 " I=      60
 AUXDATA Scheme = "WENO"       
 AUXDATA Step   = "  138"
 AUXDATA Time   = "   58.4920E-03"
 AUXDATA N      = "      60"
         1.3233507346        -0.0648018449        28.2052584971        -0.6504634207       370.6684278441         0.0584920000 1
         1.3228278342        -0.0603145250        28.1930969893        -0.6041120446       370.6717270671         0.0584920000 1
         1.3223427200        -0.0558272115        28.1818202889        -0.5577492557       370.6748011721         0.0584920000 1
         1.3218904491        -0.0512373149        28.1712332128        -0.5098634267       370.6776536053         0.0584920000 1
         1.3214811117        -0.0467496498        28.1617347784        -0.4634781049       370.6802772654         0.0584920000 1
         1.3211093758        -0.0422620611        28.1531141441        -0.4170880978       370.6826758535         0.0584920000 1
         1.3207751879        -0.0377745608        28.1453692798        -0.3706954613       370.6848493424         0.0584920000 1
         1.3204784998        -0.0332871613        28.1384983436        -0.3243022517       370.6867976861         0.0584920000 1
         1.3202192678        -0.0287998752        28.1324996814        -0.2779105253       370.6885208218         0.0584920000 1
         1.3199974535        -0.0243127156        28.1273718277        -0.2315223377       370.6900186711         0.0584920000 1
         1.3198130235        -0.0198256955        28.1231135052        -0.1851397430       370.6912911414         0.0584920000 1
         1.3196659849        -0.0153388306        28.1197276732        -0.1387650646       370.6923411432         0.0584920000 1
         1.3195562886        -0.0108521327        28.1172105075        -0.0924001378       370.6931663645         0.0584920000 1
         1.3194838910        -0.0063656140        28.1155584191        -0.0460468199       370.6937645502         0.0584920000 1
         1.3194487788        -0.0018792885        28.1147708857         0.0002928387       370.6941355549         0.0584920000 1
         1.3194509444         0.0026070934        28.1148475994         0.0466202459       370.6942792197         0.0584920000 1
         1.3194903846         0.0070929909        28.1157884121         0.0929264525       370.6941953759         0.0584920000 1
         1.3195671004         0.0115786537        28.1175933484         0.1392128792       370.6938838430         0.0584920000 1
         1.3196810987         0.0160640679        28.1202626430         0.1854774996       370.6933444251         0.0584920000 1
         1.3198324240         0.0205492187        28.1238004150         0.2317181067       370.6925796403         0.0584920000 1
         1.3200211057         0.0250340922        28.1282087336         0.2779326422       370.6915903634         0.0584920000 1
         1.3202471360         0.0295186768        28.1334849921         0.3241192996       370.6903738006         0.0584920000 1
         1.3205105417         0.0340029596        28.1396301773         0.3702761006       370.6889296772         0.0584920000 1
         1.3208113548         0.0384869281        28.1466454635         0.4164010779       370.6872576938         0.0584920000 1
         1.3211496119         0.0429705701        28.1545322129         0.4624922753       370.6853575242         0.0584920000 1
         1.3215253551         0.0474538737        28.1632919751         0.5085477479       370.6832288124         0.0584920000 1
         1.3219386310         0.0519368275        28.1729264866         0.5545655627       370.6808711697         0.0584920000 1
         1.3223843669         0.0563173453        28.1832289339         0.5990448208       370.6782892661         0.0584920000 1
         1.3228724752         0.0608000438        28.1946031254         0.6449891771       370.6754728079         0.0584920000 1
         1.3233982912         0.0652823971        28.2068586046         0.6908907036       370.6724260198         0.0584920000 1
         1.3650028406        -0.0645946729        27.7757507498        -0.6526716454        59.2608117405         0.0584920000 1
         1.3644212222        -0.0601314628        27.7619609439        -0.6065855366        59.2628649364         0.0584920000 1
         1.3638815193        -0.0556677476        27.7491701770        -0.5604683536        59.2647816911         0.0584920000 1
         1.3633836688        -0.0512035748        27.7373759319        -0.5143236755        59.2665623144         0.0584920000 1
         1.3629276653        -0.0467389961        27.7265808650        -0.4681554849        59.2682122938         0.0584920000 1
         1.3625135314        -0.0422740642        27.7167900119        -0.4219678916        59.2697393821         0.0584920000 1
         1.3621410694        -0.0378088154        27.7079875062        -0.3757631951        59.2711290819         0.0584920000 1
         1.3618102342        -0.0333432971        27.7001715526        -0.3295448907        59.2723814193         0.0584920000 1
         1.3615209854        -0.0288775566        27.6933405401        -0.2833164549        59.2734963621         0.0584920000 1
         1.3612732872        -0.0244116413        27.6874930430        -0.2370813475        59.2744738228         0.0584920000 1
         1.3610671084        -0.0199455985        27.6826278210        -0.1908430122        59.2753136606         0.0584920000 1
         1.3609024225        -0.0154794756        27.6787438199        -0.1446048780        59.2760156838         0.0584920000 1
         1.3607792077        -0.0110133199        27.6758401720        -0.0983703604        59.2765796515         0.0584920000 1
         1.3606974468        -0.0065471787        27.6739161967        -0.0521428627        59.2770052754         0.0584920000 1
         1.3606571274        -0.0020810996        27.6729714000        -0.0059257766        59.2772922213         0.0584920000 1
         1.3606582415         0.0023848699        27.6730054755         0.0402775164        59.2774401100         0.0584920000 1
         1.3607007862         0.0068506824        27.6740183042         0.0864636440        59.2774485188         0.0584920000 1
         1.3607847630         0.0113162901        27.6760099542         0.1326292423        59.2773169814         0.0584920000 1
         1.3609101782         0.0157816454        27.6789806813         0.1787709542        59.2770449891         0.0584920000 1
         1.3610770429         0.0202467005        27.6829309283         0.2248854292        59.2766319908         0.0584920000 1
         1.3612853728         0.0247114074        27.6878613252         0.2709693217        59.2760773928         0.0584920000 1
         1.3615351882         0.0291757181        27.6937726887         0.3170192903        59.2753805585         0.0584920000 1
         1.3618265143         0.0336395845        27.7006660222         0.3630319965        59.2745408084         0.0584920000 1
         1.3621593809         0.0381029584        27.7085425150         0.4090041038        59.2735574188         0.0584920000 1
         1.3625338225         0.0425657913        27.7174035420         0.4549322764        59.2724296211         0.0584920000 1
         1.3629498783         0.0470280348        27.7272506634         0.5008131781        59.2711566003         0.0584920000 1
         1.3634077494         0.0514896353        27.7381003560         0.5466429057        59.2697529967         0.0584920000 1
         1.3639073896         0.0559505477        27.7499456735         0.5924185518        59.2682085210         0.0584920000 1
         1.3644488073         0.0604107247        27.7627845456         0.6381369580        59.2665177936         0.0584920000 1
         1.3650320604         0.0648701172        27.7766192578         0.6837947896        59.2646797766         0.0584920000 1
