 Title="Shock-Particle Simulation"
 Variables = Xp, Yp, Up, Vp, Tp, Time, Onoff
 Zone T="WENO Step=   69 Time=     1.2100E-03 " I=      10
         0.1750007204        -0.0440000032         0.0111441542        -0.0001561102         1.4304454944         0.0012100000 1
         0.1750007223        -0.0342222234         0.0111744890        -0.0000624488         1.4303062273         0.0012100000 1
         0.1750007224        -0.0244444454         0.0111773899        -0.0000573979         1.4302470369         0.0012100000 1
         0.1750007223        -0.0146666675         0.0111760222        -0.0000552432         1.4302318353         0.0012100000 1
         0.1750007222        -0.0048888897         0.0111734230        -0.0000524731         1.4302088800         0.0012100000 1
         0.1750007222         0.0048888844         0.0111734231        -0.0002111205         1.4302088833         0.0012100000 1
         0.1750007223         0.0146666623         0.0111760225        -0.0002099625         1.4302318405         0.0012100000 1
         0.1750007224         0.0244444401         0.0111773902        -0.0002079555         1.4302470426         0.0012100000 1
         0.1750007223         0.0342222181         0.0111744893        -0.0002016862         1.4303062318         0.0012100000 1
         0.1750007204         0.0439999968         0.0111441544        -0.0001710763         1.4304454925         0.0012100000 1
