 Title="Shock-Particle Simulation"
 Variables = Xp, Yp, Up, Vp, Tp, Time, Onoff
 Zone T="WENO Step=   83 Time=     1.4520E-03 " I=      10
         0.1750064480        -0.0440001497         0.0343233438        -0.0014440031         1.5903194991         0.0014520000 1
         0.1750064897        -0.0342222740         0.0347043850        -0.0001104927         1.5927891017         0.0014520000 1
         0.1750064897        -0.0244445107         0.0347161256        -0.0003008761         1.5928833180         0.0014520000 1
         0.1750064885        -0.0146667435         0.0347114249        -0.0004843016         1.5928266833         0.0014520000 1
         0.1750064884        -0.0048890089         0.0347191450        -0.0008828322         1.5928332604         0.0014520000 1
         0.1750064884         0.0048886231         0.0347189188        -0.0020230232         1.5928326896         0.0014520000 1
         0.1750064885         0.0146663513         0.0347112384        -0.0024350061         1.5928256309         0.0014520000 1
         0.1750064897         0.0244441213         0.0347159405        -0.0025630553         1.5928823906         0.0014520000 1
         0.1750064897         0.0342218900         0.0347042287        -0.0026997868         1.5927884724         0.0014520000 1
         0.1750064480         0.0439997716         0.0343233059        -0.0011439449         1.5903189192         0.0014520000 1
