 Title="Shock-Particle Simulation"
 Variables = Xp, Yp, Up, Vp, Tp, Time, Onoff
 Zone T="WENO Step=   62 Time=     1.0890E-03 " I=      10
         0.1750000446        -0.0439999997         0.0011578618         0.0000064983         1.4019848935         0.0010890000 1
         0.1750000446        -0.0342222222         0.0011581054         0.0000015054         1.4019867545         0.0010890000 1
         0.1750000446        -0.0244444444         0.0011579893         0.0000015228         1.4019866038         0.0010890000 1
         0.1750000446        -0.0146666666         0.0011578672         0.0000015481         1.4019864455         0.0010890000 1
         0.1750000446        -0.0048888888         0.0011577466         0.0000015702         1.4019862880         0.0010890000 1
         0.1750000446         0.0048888891         0.0011577466         0.0000054866         1.4019862880         0.0010890000 1
         0.1750000446         0.0146666669         0.0011578672         0.0000054943         1.4019864455         0.0010890000 1
         0.1750000446         0.0244444447         0.0011579893         0.0000055036         1.4019866038         0.0010890000 1
         0.1750000446         0.0342222225         0.0011581054         0.0000055116         1.4019867546         0.0010890000 1
         0.1750000446         0.0440000002         0.0011578618         0.0000046014         1.4019848935         0.0010890000 1
