 Title="Shock-Particle Simulation"
 Variables = Xp, Yp, Up, Vp, Tp, Time, Onoff
 Zone T="WENO Step=  157 Time=    66.8480E-03 " I=      60
 AUXDATA Scheme = "WENO"       
 AUXDATA Step   = "  157"
 AUXDATA Time   = "   66.8480E-03"
 AUXDATA N      = "      60"
         1.5660844869        -0.0703557228        29.8162669959        -0.6587698963       374.0071194127         0.0668480000 1
         1.5654603865        -0.0654837875        29.8040805821        -0.6134315740       374.0111628784         0.0668480000 1
         1.5648814356        -0.0606115469        29.7927813115        -0.5680419819       374.0149291662         0.0668480000 1
         1.5643409714        -0.0556242181        29.7821499577        -0.5211974592       374.0184208294         0.0668480000 1
         1.5638525976        -0.0507510159        29.7726339502        -0.4757092645       374.0216320639         0.0668480000 1
         1.5634091239        -0.0458776480        29.7639964568        -0.4301804648       374.0245655113         0.0668480000 1
         1.5630104783        -0.0410041483        29.7562350084        -0.3846144417       374.0272209645         0.0668480000 1
         1.5626565955        -0.0361305509        29.7493473761        -0.3390145820       374.0295982159         0.0668480000 1
         1.5623474170        -0.0312568906        29.7433315696        -0.2933842793       374.0316970587         0.0668480000 1
         1.5620828908        -0.0263832026        29.7381858374        -0.2477269334       374.0335172881         0.0668480000 1
         1.5618629722        -0.0215095221        29.7339086656        -0.2020459520       374.0350587024         0.0668480000 1
         1.5616876852        -0.0166358891        29.7305012938        -0.1563449606       374.0363232709         0.0668480000 1
         1.5615569534        -0.0117623363        29.7279608633        -0.1106272176       374.0373092191         0.0668480000 1
         1.5614707078        -0.0068888972        29.7262847820        -0.0648960109       374.0380148373         0.0668480000 1
         1.5614289306        -0.0020156083        29.7254724826        -0.0191547907       374.0384399378         0.0668480000 1
         1.5614316118         0.0028577852        29.7255236609         0.0265962618       374.0385843380         0.0668480000 1
         1.5614787469         0.0077306634        29.7264382148         0.0723471142       374.0384478545         0.0668480000 1
         1.5615703378         0.0126032809        29.7282162608         0.1180975622       374.0380303150         0.0668480000 1
         1.5617063939         0.0174756009        29.7308581723         0.1638441097       374.0373315449         0.0668480000 1
         1.5618869882         0.0223475839        29.7343668530         0.2095831022       374.0363533234         0.0668480000 1
         1.5621121661         0.0272191924        29.7387440506         0.2553109797       374.0350962719         0.0668480000 1
         1.5623819048         0.0320903928        29.7439887250         0.3010243546       374.0335583804         0.0668480000 1
         1.5626962408         0.0369611486        29.7501021861         0.3467196836       374.0317394584         0.0668480000 1
         1.5630552172         0.0418314238        29.7570859778         0.3923934076       374.0296393064         0.0668480000 1
         1.5634588838         0.0467011825        29.7649418786         0.4380419499       374.0272577138         0.0668480000 1
         1.5639072973         0.0515703891        29.7736719013         0.4836617156       374.0245944556         0.0668480000 1
         1.5644005208         0.0564390081        29.7832782930         0.5292490902       374.0216492896         0.0668480000 1
         1.5649316485         0.0611927673        29.7935276498         0.5733976362       374.0184235802         0.0668480000 1
         1.5655141762         0.0660606441        29.8048766672         0.6189164011       374.0149139929         0.0668480000 1
         1.5661417508         0.0709278701        29.8171104345         0.6643923519       374.0111216338         0.0668480000 1
         1.6045482367        -0.0701050661        29.4677050145        -0.6495985280        64.9459705057         0.0668480000 1
         1.6038533829        -0.0652613763        29.4542308202        -0.6049969088        64.9493320140         0.0668480000 1
         1.6032086592        -0.0604167150        29.4417353812        -0.5603248946        64.9524662668         0.0668480000 1
         1.6026139777        -0.0555711645        29.4302153526        -0.5155874301        64.9553729566         0.0668480000 1
         1.6020693434        -0.0507248141        29.4196707307        -0.4707897799        64.9580552785         0.0668480000 1
         1.6015748056        -0.0458777552        29.4101031165        -0.4259373133        64.9605179772         0.0668480000 1
         1.6011300554        -0.0410300495        29.4015013187        -0.3810339893        64.9627508840         0.0668480000 1
         1.6007350305        -0.0361817791        29.3938629964        -0.3360847122        64.9647536085         0.0668480000 1
         1.6003896750        -0.0313330255        29.3871860597        -0.2910943813        64.9665257493         0.0668480000 1
         1.6000939394        -0.0264838705        29.3814686696        -0.2460678937        64.9680668963         0.0668480000 1
         1.5998477808        -0.0216343959        29.3767092380        -0.2010101469        64.9693766322         0.0668480000 1
         1.5996511626        -0.0167846835        29.3729064272        -0.1559260409        64.9704545346         0.0668480000 1
         1.5995040548        -0.0119348151        29.3700591500        -0.1108204805        64.9713001770         0.0668480000 1
         1.5994064339        -0.0070848728        29.3681665692        -0.0656983779        64.9719131301         0.0668480000 1
         1.5993582828        -0.0022349387        29.3672280976        -0.0205646551        64.9722929630         0.0668480000 1
         1.5993595912         0.0026149050        29.3672433977         0.0245757542        64.9724392438         0.0668480000 1
         1.5994103550         0.0074645759        29.3682123814         0.0697179022        64.9723515403         0.0668480000 1
         1.5995105768         0.0123139912        29.3701352095         0.1148568242        64.9720294203         0.0668480000 1
         1.5996602656         0.0171630681        29.3730122921         0.1599875368        64.9714724520         0.0668480000 1
         1.5998594372         0.0220117235        29.3768442875         0.2051050353        64.9706802037         0.0668480000 1
         1.6001081136         0.0268598740        29.3816321026         0.2502042915        64.9696522437         0.0668480000 1
         1.6004063235         0.0317074358        29.3873768923         0.2952802507        64.9683881401         0.0668480000 1
         1.6007541021         0.0365543249        29.3940800592         0.3403278299        64.9668874598         0.0668480000 1
         1.6011514911         0.0414004570        29.4017432533         0.3853419150        64.9651497676         0.0668480000 1
         1.6015985387         0.0462457474        29.4103683719         0.4303173580        64.9631746258         0.0668480000 1
         1.6020952996         0.0510901108        29.4199575592         0.4752489744        64.9609615924         0.0668480000 1
         1.6026420895         0.0559334527        29.4305223038         0.5201311037        64.9585206153         0.0668480000 1
         1.6032388228         0.0607756941        29.4420597699         0.5649588167        64.9558449461         0.0668480000 1
         1.6038855013         0.0656167514        29.4545702618         0.6097269477        64.9529311578         0.0668480000 1
         1.6045822054         0.0704565377        29.4680569062         0.6544301509        64.9497787602         0.0668480000 1
