 Title="Shock-Particle Simulation"
 Variables = Xp, Yp, Up, Vp, Tp, Time, Onoff
 Zone T="WENO Step=   90 Time=     1.5730E-03 " I=      10
         0.1750111866        -0.0440004337         0.0438308544        -0.0036406357         1.6813227719         0.0015730000 1
         0.1750112719        -0.0342222500         0.0440654378         0.0005315122         1.6864683968         0.0015730000 1
         0.1750112764        -0.0244445066         0.0441294880         0.0004690401         1.6866625444         0.0015730000 1
         0.1750112753        -0.0146667685         0.0441325480         0.0002001736         1.6865497564         0.0015730000 1
         0.1750112777        -0.0048890911         0.0441618644        -0.0003301310         1.6865492882         0.0015730000 1
         0.1750112777         0.0048883145         0.0441612201        -0.0031097259         1.6865457996         0.0015730000 1
         0.1750112752         0.0146659779         0.0441319061        -0.0037814841         1.6865459368         0.0015730000 1
         0.1750112764         0.0244437281         0.0441287720        -0.0039607755         1.6866588806         0.0015730000 1
         0.1750112719         0.0342214770         0.0440648699        -0.0040973048         1.6864651862         0.0015730000 1
         0.1750111866         0.0439997583         0.0438309833         0.0013220648         1.6813214040         0.0015730000 1
