 Title="Shock-Particle Simulation"
 Variables = Xp, Yp, Up, Vp, Tp, Time, Onoff
 Zone T="WENO Step=   78 Time=    33.4240E-03 " I=      60
 AUXDATA Scheme = "WENO"       
 AUXDATA Step   = "   78"
 AUXDATA Time   = "   33.4240E-03"
 AUXDATA N      = "      60"
         0.6804815541        -0.0500454563        23.0276556591        -0.4036204867       358.1780492447         0.0334240000 1
         0.6802471984        -0.0465942293        23.0178560299        -0.3729363116       358.1804495989         0.0334240000 1
         0.6800296645        -0.0431430697        23.0087822708        -0.3422675926       358.1827052272         0.0334240000 1
         0.6798276328        -0.0396303804        23.0003414916        -0.3098580416       358.1848290122         0.0334240000 1
         0.6796437888        -0.0361791034        22.9927226014        -0.2792131125       358.1867934691         0.0334240000 1
         0.6794767147        -0.0327279018        22.9858254956        -0.2485836941       358.1886127582         0.0334240000 1
         0.6793263958        -0.0292767711        22.9796489442        -0.2179696431       358.1902866528         0.0334240000 1
         0.6791928186        -0.0258257069        22.9741917994        -0.1873708391       358.1918148860         0.0334240000 1
         0.6790759713        -0.0223747045        22.9694529968        -0.1567871833       358.1931971512         0.0334240000 1
         0.6789758436        -0.0189237596        22.9654315554        -0.1262185973       358.1944331044         0.0334240000 1
         0.6788924265        -0.0154728678        22.9621265783        -0.0956650227       358.1955223646         0.0334240000 1
         0.6788257127        -0.0120220246        22.9595372531        -0.0651264194       358.1964645155         0.0334240000 1
         0.6787756963        -0.0085712257        22.9576628517        -0.0346027648       358.1972591063         0.0334240000 1
         0.6787423727        -0.0051204667        22.9565027314        -0.0040940531       358.1979056526         0.0334240000 1
         0.6787257390        -0.0016697433        22.9560563343         0.0263997066       358.1984036370         0.0334240000 1
         0.6787257940         0.0017811235        22.9563232040         0.0568819914       358.1987525082         0.0334240000 1
         0.6787425376         0.0052317888        22.9573029494         0.0873457609       358.1989516862         0.0334240000 1
         0.6787759711         0.0086824316        22.9589952577         0.1177944680       358.1990005602         0.0334240000 1
         0.6788260974         0.0121330561        22.9613999135         0.1482280529       358.1988984877         0.0334240000 1
         0.6788929209         0.0155836669        22.9645167871         0.1786464463       358.1986447955         0.0334240000 1
         0.6789764477         0.0190342681        22.9683458348         0.2090495699       358.1982387804         0.0334240000 1
         0.6790766850         0.0224848643        22.9728870986         0.2394373378       358.1976797088         0.0334240000 1
         0.6791936417         0.0259354599        22.9781407062         0.2698096577       358.1969668169         0.0334240000 1
         0.6793273282         0.0293860593        22.9841068709         0.3001664318       358.1960993105         0.0334240000 1
         0.6794777563         0.0328366669        22.9907858917         0.3305075577       358.1950763647         0.0334240000 1
         0.6796449392         0.0362872874        22.9981781526         0.3608329299       358.1938971238         0.0334240000 1
         0.6798288919         0.0397379251        23.0062841230         0.3911424403       358.1925607004         0.0334240000 1
         0.6800283737         0.0431272553        23.0150112703         0.4196956478       358.1910885178         0.0334240000 1
         0.6802458154         0.0465782238        23.0245391731         0.4499815175       358.1894363509         0.0334240000 1
         0.6804800813         0.0500292452        23.0347828005         0.4802518177       358.1876241269         0.0334240000 1
         0.7429531921        -0.0496864998        21.3462591918        -0.3882480863        38.4963581463         0.0334240000 1
         0.7427050342        -0.0462617761        21.3342708350        -0.3578553056        38.4964658233         0.0334240000 1
         0.7424746839        -0.0428370660        21.3231599939        -0.3274754602        38.4965827024         0.0334240000 1
         0.7422621218        -0.0394123684        21.3129255801        -0.2971091024        38.4967096760         0.0334240000 1
         0.7420673297        -0.0359876822        21.3035665548        -0.2667567887        38.4968475078         0.0334240000 1
         0.7418902913        -0.0325630063        21.2950819303        -0.2364190805        38.4969968349         0.0334240000 1
         0.7417309916        -0.0291383395        21.2874707702        -0.2060965453        38.4971581702         0.0334240000 1
         0.7415894171        -0.0257136806        21.2807321910        -0.1757897571        38.4973319045         0.0334240000 1
         0.7414655559        -0.0222890285        21.2748653623        -0.1454992973        38.4975183086         0.0334240000 1
         0.7413593976        -0.0188643819        21.2698695081        -0.1152257553        38.4977175353         0.0334240000 1
         0.7412709331        -0.0154397396        21.2657439074        -0.0849697291        38.4979296215         0.0334240000 1
         0.7412001551        -0.0120151003        21.2624878948        -0.0547318260        38.4981544906         0.0334240000 1
         0.7411470575        -0.0085904628        21.2601008613        -0.0245126626        38.4983919537         0.0334240000 1
         0.7411116359        -0.0051658259        21.2585822552         0.0056871343        38.4986417120         0.0334240000 1
         0.7410938873        -0.0017411882        21.2579315822         0.0358669278        38.4989033585         0.0334240000 1
         0.7410938102         0.0016834515        21.2581484064         0.0660260703        38.4991763796         0.0334240000 1
         0.7411114047         0.0051080944        21.2592323509         0.0961639033        38.4994601569         0.0334240000 1
         0.7411466722         0.0085327418        21.2611830978         0.1262797573        38.4997539687         0.0334240000 1
         0.7411996157         0.0119573949        21.2640003892         0.1563729517        38.5000569917         0.0334240000 1
         0.7412702397         0.0153820549        21.2676840272         0.1864427945        38.5003683019         0.0334240000 1
         0.7413585502         0.0188067230        21.2722338745         0.2164885824        38.5006868765         0.0334240000 1
         0.7414645547         0.0222314004        21.2776498547         0.2465096005        38.5010115948         0.0334240000 1
         0.7415882622         0.0256560883        21.2839319524         0.2765051228        38.5013412394         0.0334240000 1
         0.7417296832         0.0290807879        21.2910802139         0.3064744116        38.5016744970         0.0334240000 1
         0.7418888297         0.0325055001        21.2990947467         0.3364167179        38.5020099597         0.0334240000 1
         0.7420657152         0.0359302261        21.3079757202         0.3663312815        38.5023461256         0.0334240000 1
         0.7422603547         0.0393549669        21.3177233656         0.3962173308        38.5026813994         0.0334240000 1
         0.7424727648         0.0427797236        21.3283379761         0.4260740831        38.5030140932         0.0334240000 1
         0.7427029636         0.0462044972        21.3398199067         0.4559007447        38.5033424268         0.0334240000 1
         0.7429509707         0.0496292884        21.3521695743         0.4856965110        38.5036645282         0.0334240000 1
