 Title="Shock-Particle Simulation"
 Variables = Xp, Yp, Up, Vp, Tp, Time, Onoff
 Zone T="WENO Step=   49 Time=    20.8900E-03 " I=      60
 AUXDATA Scheme = "WENO"       
 AUXDATA Step   = "   49"
 AUXDATA Time   = "   20.8900E-03"
 AUXDATA N      = "      60"
         0.4124266135        -0.0458318917        19.0488599259        -0.2172498006       349.5431636280         0.0208900000 1
         0.4123093829        -0.0426677067        19.0401220324        -0.2011703949       349.5446181619         0.0208900000 1
         0.4122005726        -0.0395036069        19.0320117692        -0.1851009327       349.5459665459         0.0208900000 1
         0.4120996981        -0.0363021747        19.0244815973        -0.1667855520       349.5472173971         0.0208900000 1
         0.4120077353        -0.0331380876        19.0176282666        -0.1507267830       349.5483540935         0.0208900000 1
         0.4119241677        -0.0299740848        19.0114008094        -0.1346782525       349.5493859717         0.0208900000 1
         0.4118489884        -0.0268101618        19.0057987193        -0.1186397900       349.5503134026         0.0208900000 1
         0.4117821909        -0.0236463138        19.0008215383        -0.1026112246       349.5511367191         0.0208900000 1
         0.4117237695        -0.0204825362        18.9964688565        -0.0865923851       349.5518562162         0.0208900000 1
         0.4116737191        -0.0173188242        18.9927403123        -0.0705830999       349.5524721514         0.0208900000 1
         0.4116320354        -0.0141551732        18.9896355925        -0.0545831972       349.5529847443         0.0208900000 1
         0.4115987148        -0.0109915784        18.9871544318        -0.0385925048       349.5533941770         0.0208900000 1
         0.4115737543        -0.0078280353        18.9852966134        -0.0226108502       349.5537005940         0.0208900000 1
         0.4115571518        -0.0046645392        18.9840619689        -0.0066380607       349.5539041021         0.0208900000 1
         0.4115489055        -0.0015010853        18.9834503780         0.0093260366       349.5540047709         0.0208900000 1
         0.4115490149         0.0016624600        18.9834617741         0.0252856168       349.5540026281         0.0208900000 1
         0.4115574796         0.0048258433        18.9840961404         0.0412328478       349.5538976743         0.0208900000 1
         0.4115743002         0.0079891983        18.9853534895         0.0571719054       349.5536898647         0.0208900000 1
         0.4115994779         0.0111525296        18.9872338945         0.0731029632       349.5533791190         0.0208900000 1
         0.4116330146         0.0143158420        18.9897374770         0.0890261954       349.5529653194         0.0208900000 1
         0.4116749130         0.0174791400        18.9928644068         0.1049417760       349.5524483107         0.0208900000 1
         0.4117251763         0.0206424284        18.9966149020         0.1208498793       349.5518279005         0.0208900000 1
         0.4117838086         0.0238057118        19.0009892295         0.1367506798       349.5511038587         0.0208900000 1
         0.4118508146         0.0269689950        19.0059877043         0.1526443520       349.5502759178         0.0208900000 1
         0.4119261996         0.0301322825        19.0116106900         0.1685310705       349.5493437730         0.0208900000 1
         0.4120099699         0.0332955791        19.0178585986         0.1844110102       349.5483070818         0.0208900000 1
         0.4121021321         0.0364588895        19.0247318905         0.2002843460       349.5471654642         0.0208900000 1
         0.4122023244         0.0395849738        19.0321886570         0.2139070712       349.5459299232         0.0208900000 1
         0.4123112605         0.0427484969        19.0403107601         0.2297781685       349.5445779181         0.0208900000 1
         0.4124286137         0.0459120611        19.0490599661         0.2456439880       349.5431196098         0.0208900000 1
         0.5050155247        -0.0456713395        15.7890365660        -0.2027456843        24.6750535239         0.0208900000 1
         0.5049022918        -0.0425191995        15.7790183930        -0.1881097551        24.6745023141         0.0208900000 1
         0.5047971972        -0.0393671453        15.7697178903        -0.1734807718        24.6739855670         0.0208900000 1
         0.5047002298        -0.0362151719        15.7611344810        -0.1588586478        24.6735042188         0.0208900000 1
         0.5046113793        -0.0330632742        15.7532676332        -0.1442432928        24.6730591329         0.0208900000 1
         0.5045306365        -0.0299114473        15.7461168594        -0.1296346136        24.6726511003         0.0208900000 1
         0.5044579928        -0.0267596859        15.7396817166        -0.1150325143        24.6722808397         0.0208900000 1
         0.5043934408        -0.0236079850        15.7339618062        -0.1004368961        24.6719489979         0.0208900000 1
         0.5043369736        -0.0204563396        15.7289567739        -0.0858476580        24.6716561499         0.0208900000 1
         0.5042885853        -0.0173047445        15.7246663099        -0.0712646966        24.6714027991         0.0208900000 1
         0.5042482710        -0.0141531947        15.7210901486        -0.0566879068        24.6711893775         0.0208900000 1
         0.5042160262        -0.0110016849        15.7182280686        -0.0421171814        24.6710162459         0.0208900000 1
         0.5041918478        -0.0078502102        15.7160798927        -0.0275524121        24.6708836941         0.0208900000 1
         0.5041757330        -0.0046987653        15.7146454881        -0.0129934889        24.6707919405         0.0208900000 1
         0.5041676803        -0.0015473452        15.7139247660         0.0015596990        24.6707411328         0.0208900000 1
         0.5041676888         0.0016040552        15.7139176817         0.0161072637        24.6707313478         0.0208900000 1
         0.5041757583         0.0047554412        15.7146242349         0.0306493176        24.6707625913         0.0208900000 1
         0.5041918898         0.0079068179        15.7160444695         0.0451859736        24.6708347983         0.0208900000 1
         0.5042160849         0.0110581903        15.7181784735         0.0597173452        24.6709478328         0.0208900000 1
         0.5042483459         0.0142095636        15.7210263790         0.0742435456        24.6711014881         0.0208900000 1
         0.5042886763         0.0173609430        15.7245883626         0.0887646880        24.6712954861         0.0208900000 1
         0.5043370801         0.0205123336        15.7288646452         0.1032808853        24.6715294780         0.0208900000 1
         0.5043935623         0.0236637405        15.7338554918         0.1177922497        24.6718030437         0.0208900000 1
         0.5044581289         0.0268151690        15.7395612121         0.1322988926        24.6721156916         0.0208900000 1
         0.5045307863         0.0299666240        15.7459821599         0.1468009247        24.6724668588         0.0208900000 1
         0.5046115423         0.0331181108        15.7531187337         0.1612984551        24.6728559106         0.0208900000 1
         0.5047004052         0.0362696346        15.7609713767         0.1757915917        24.6732821406         0.0208900000 1
         0.5047973842         0.0394212004        15.7695405765         0.1902804410        24.6737447700         0.0208900000 1
         0.5049024894         0.0425728133        15.7788268657         0.2047651072        24.6742429479         0.0208900000 1
         0.5050157319         0.0457244786        15.7888308214         0.2192456929        24.6747757507         0.0208900000 1
