 Title="Shock-Particle Simulation"
 Variables = Xp, Yp, Up, Vp, Tp, Time, Onoff
 Zone T="WENO Step=  177 Time=    75.2040E-03 " I=      60
 AUXDATA Scheme = "WENO"       
 AUXDATA Step   = "  177"
 AUXDATA Time   = "   75.2040E-03"
 AUXDATA N      = "      60"
         1.8209945360        -0.0757505401        31.2134560344        -0.6415031720       377.0385573785         0.0752040000 1
         1.8202658799        -0.0705070007        31.2006447815        -0.5979125600       377.0427728596         0.0752040000 1
         1.8195899822        -0.0652626902        31.1887660111        -0.5542515317       377.0466998589         0.0752040000 1
         1.8189582228        -0.0598915294        31.1775727470        -0.5092171916       377.0503345484         0.0752040000 1
         1.8183881996        -0.0546453707        31.1675688973        -0.4654215773       377.0536842176         0.0752040000 1
         1.8178706083        -0.0493986808        31.1584876614        -0.4215685104       377.0567445574         0.0752040000 1
         1.8174053547        -0.0441515254        31.1503262187        -0.3776621431       377.0595152848         0.0752040000 1
         1.8169923537        -0.0389039707        31.1430820232        -0.3337066334       377.0619961201         0.0752040000 1
         1.8166315288        -0.0336560834        31.1367528022        -0.2897061453       377.0641867883         0.0752040000 1
         1.8163228129        -0.0284079303        31.1313365556        -0.2456648508       377.0660870206         0.0752040000 1
         1.8160661473        -0.0231595790        31.1268315552        -0.2015869308       377.0676965555         0.0752040000 1
         1.8158615618        -0.0179111027        31.1232379252        -0.1574767507       377.0690167601         0.0752040000 1
         1.8157089586        -0.0126625650        31.1205533354        -0.1133383754       377.0700462037         0.0752040000 1
         1.8156082495        -0.0074140302        31.1187757461        -0.0691758995       377.0707835196         0.0752040000 1
         1.8155594119        -0.0021655669        31.1179045122        -0.0249935584       377.0712284795         0.0752040000 1
         1.8155624329         0.0030830742        31.1179392870         0.0192074872       377.0713808663         0.0752040000 1
         1.8156173075         0.0083311877        31.1188799582         0.0634167896       377.0712404636         0.0752040000 1
         1.8157240386         0.0135790226        31.1207266622         0.1076331527       377.0708070735         0.0752040000 1
         1.8158826391         0.0188265099        31.1234798284         0.1518522718       377.0700805003         0.0752040000 1
         1.8160932030         0.0240735763        31.1271415950         0.1960697018       377.0690620065         0.0752040000 1
         1.8163557894         0.0293201517        31.1317134955         0.2402810653       377.0677520051         0.0752040000 1
         1.8166703712         0.0345661709        31.1371954364         0.2844821149       377.0661489409         0.0752040000 1
         1.8170369966         0.0398115651        31.1435889196         0.3286684626       377.0642526222         0.0752040000 1
         1.8174557227         0.0450562654        31.1508957155         0.3728356934       377.0620628534         0.0752040000 1
         1.8179266156         0.0503002031        31.1591178628         0.4169793641       377.0595794319         0.0752040000 1
         1.8184497499         0.0555433096        31.1682576693         0.4610950007       377.0568021456         0.0752040000 1
         1.8190252093         0.0607855164        31.1783177115         0.5051780968       377.0537307694         0.0752040000 1
         1.8196440088         0.0659012270        31.1890355420         0.5479163885       377.0503588705         0.0752040000 1
         1.8203237127         0.0711420256        31.2009248192         0.5919274626       377.0466982390         0.0752040000 1
         1.8210560541         0.0763817657        31.2137439335         0.6358928002       377.0427427373         0.0752040000 1
         1.8568286011        -0.0754162715        30.9347942387        -0.6288864614        70.2446098753         0.0752040000 1
         1.8560193846        -0.0702079903        30.9209230356        -0.5862276370        70.2483200044         0.0752040000 1
         1.8552686039        -0.0649981136        30.9080595669        -0.5434805405        70.2517794734         0.0752040000 1
         1.8545761419        -0.0597867680        30.8962000619        -0.5006507825        70.2549877405         0.0752040000 1
         1.8539419965        -0.0545740898        30.8853429717        -0.4577442402        70.2579466435         0.0752040000 1
         1.8533662218        -0.0493602182        30.8754878717        -0.4147668786        70.2606590771         0.0752040000 1
         1.8528484283        -0.0441452518        30.8666264456        -0.3717234950        70.2631178384         0.0752040000 1
         1.8523885331        -0.0389293165        30.8587560583        -0.3286196742        70.2653223616         0.0752040000 1
         1.8519864617        -0.0337125380        30.8518743584        -0.2854610009        70.2672720845         0.0752040000 1
         1.8516421484        -0.0284950420        30.8459792776        -0.2422530629        70.2689664515         0.0752040000 1
         1.8513555364        -0.0232769541        30.8410690308        -0.1990014532        70.2704049157         0.0752040000 1
         1.8511265773        -0.0180583999        30.8371421159        -0.1557117734        70.2715869406         0.0752040000 1
         1.8509552316        -0.0128395052        30.8341973137        -0.1123896360        70.2725120020         0.0752040000 1
         1.8508414684        -0.0076203958        30.8322336876        -0.0690406674        70.2731795892         0.0752040000 1
         1.8507852657        -0.0024011978        30.8312505833        -0.0256705107        70.2735892063         0.0752040000 1
         1.8507866100         0.0028179626        30.8312476289         0.0177151717        70.2737403731         0.0752040000 1
         1.8508454969         0.0080369589        30.8322247340         0.0611106954        70.2736326255         0.0752040000 1
         1.8509619304         0.0132556643        30.8341820902         0.1045103509        70.2732655162         0.0752040000 1
         1.8511359233         0.0184739516        30.8371201698         0.1479084009        70.2726386145         0.0752040000 1
         1.8513674974         0.0236916933        30.8410397264         0.1912990778        70.2717515063         0.0752040000 1
         1.8516566829         0.0289087614        30.8459417939         0.2346765801        70.2706037940         0.0752040000 1
         1.8520035188         0.0341250274        30.8518276864         0.2780350702        70.2691950952         0.0752040000 1
         1.8524080531         0.0393403625        30.8586989977         0.3213686708        70.2675250424         0.0752040000 1
         1.8528703422         0.0445546369        30.8665576008         0.3646714620        70.2655932814         0.0752040000 1
         1.8533904513         0.0497677206        30.8754056478         0.4079374786        70.2633994704         0.0752040000 1
         1.8539684541         0.0549794827        30.8852455689         0.4511607061        70.2609432777         0.0752040000 1
         1.8546047489         0.0601897794        30.8960857478         0.4943347200        70.2582314013         0.0752040000 1
         1.8552992367         0.0653984877        30.9079257625         0.5374536749        70.2552592694         0.0752040000 1
         1.8560519279         0.0706054786        30.9207672699         0.5805115087        70.2520245668         0.0752040000 1
         1.8568629307         0.0758106185        30.9346138103         0.6235019884        70.2485269707         0.0752040000 1
