 Title="Moving Shock Problem"
 Variables = x, Rho,RU,E,U,P, Rho_R,RU_R,Source1,Source2,Source3
 DATASETAUXDATA N           = "  805"
 DATASETAUXDATA Algorithm   = "WENO"     
 DATASETAUXDATA Scheme      = "Zico"
 DATASETAUXDATA Order       = "    5"
 DATASETAUXDATA Method      = "    2"
 DATASETAUXDATA Epsilon     = "    1.0000E-12"
 DATASETAUXDATA Power       = "    1.0000E+00"
 DATASETAUXDATA Lambda      = "    1.1000E+00"
 DATASETAUXDATA Sound_Speed = "    0.0000E+00"
 DATASETAUXDATA Unroll_Loop = "    2"
 Zone T="WENO          0    0.0000E+00" I=     805
 AUXDATA Scheme      = "WENO"     
 AUXDATA Step        = "    0"
 AUXDATA Time        = "    0.0000E+00"
    -5.0344  0.57142857142857E+01 0.55780180812082E+02 0.56350000000000E+03 0.97615316421144E+01 0.11650000000000E+03 0.57142857142857E+01 0.55780180812082E+02 0.00000000000000E+00 0.00000000000000E+00 0.00000000000000E+00
    -5.0207  0.57142857142857E+01 0.55780180812082E+02 0.56350000000000E+03 0.97615316421144E+01 0.11650000000000E+03 0.57142857142857E+01 0.55780180812082E+02 0.00000000000000E+00 0.00000000000000E+00 0.00000000000000E+00
    -5.0069  0.57142857142857E+01 0.55780180812082E+02 0.56350000000000E+03 0.97615316421144E+01 0.11650000000000E+03 0.57142857142857E+01 0.55780180812082E+02 0.00000000000000E+00 0.00000000000000E+00 0.00000000000000E+00
    -4.9931  0.57142857142857E+01 0.55780180812082E+02 0.56350000000000E+03 0.97615316421144E+01 0.11650000000000E+03 0.57142857142857E+01 0.55780180812082E+02 0.00000000000000E+00 0.00000000000000E+00 0.00000000000000E+00
    -4.9793  0.57142857142857E+01 0.55780180812082E+02 0.56350000000000E+03 0.97615316421144E+01 0.11650000000000E+03 0.57142857142857E+01 0.55780180812082E+02 0.00000000000000E+00 0.00000000000000E+00 0.00000000000000E+00
    -4.9656  0.57142857142857E+01 0.55780180812082E+02 0.56350000000000E+03 0.97615316421144E+01 0.11650000000000E+03 0.57142857142857E+01 0.55780180812082E+02 0.00000000000000E+00 0.00000000000000E+00 0.00000000000000E+00
    -4.9518  0.57142857142857E+01 0.55780180812082E+02 0.56350000000000E+03 0.97615316421144E+01 0.11650000000000E+03 0.57142857142857E+01 0.55780180812082E+02 0.00000000000000E+00 0.00000000000000E+00 0.00000000000000E+00
    -4.9380  0.57142857142857E+01 0.55780180812082E+02 0.56350000000000E+03 0.97615316421144E+01 0.11650000000000E+03 0.57142857142857E+01 0.55780180812082E+02 0.00000000000000E+00 0.00000000000000E+00 0.00000000000000E+00
    -4.9243  0.57142857142857E+01 0.55780180812082E+02 0.56350000000000E+03 0.97615316421144E+01 0.11650000000000E+03 0.57142857142857E+01 0.55780180812082E+02 0.00000000000000E+00 0.00000000000000E+00 0.00000000000000E+00
    -4.9105  0.57142857142857E+01 0.55780180812082E+02 0.56350000000000E+03 0.97615316421144E+01 0.11650000000000E+03 0.57142857142857E+01 0.55780180812082E+02 0.00000000000000E+00 0.00000000000000E+00 0.00000000000000E+00
    -4.8967  0.57142857142857E+01 0.55780180812082E+02 0.56350000000000E+03 0.97615316421144E+01 0.11650000000000E+03 0.57142857142857E+01 0.55780180812082E+02 0.00000000000000E+00 0.00000000000000E+00 0.00000000000000E+00
    -4.8830  0.57142857142857E+01 0.55780180812082E+02 0.56350000000000E+03 0.97615316421144E+01 0.11650000000000E+03 0.57142857142857E+01 0.55780180812082E+02 0.00000000000000E+00 0.00000000000000E+00 0.00000000000000E+00
    -4.8692  0.57142857142857E+01 0.55780180812082E+02 0.56350000000000E+03 0.97615316421144E+01 0.11650000000000E+03 0.57142857142857E+01 0.55780180812082E+02 0.00000000000000E+00 0.00000000000000E+00 0.00000000000000E+00
    -4.8554  0.57142857142857E+01 0.55780180812082E+02 0.56350000000000E+03 0.97615316421144E+01 0.11650000000000E+03 0.57142857142857E+01 0.55780180812082E+02 0.00000000000000E+00 0.00000000000000E+00 0.00000000000000E+00
    -4.8417  0.57142857142857E+01 0.55780180812082E+02 0.56350000000000E+03 0.97615316421144E+01 0.11650000000000E+03 0.57142857142857E+01 0.55780180812082E+02 0.00000000000000E+00 0.00000000000000E+00 0.00000000000000E+00
    -4.8279  0.57142857142857E+01 0.55780180812082E+02 0.56350000000000E+03 0.97615316421144E+01 0.11650000000000E+03 0.57142857142857E+01 0.55780180812082E+02 0.00000000000000E+00 0.00000000000000E+00 0.00000000000000E+00
    -4.8141  0.57142857142857E+01 0.55780180812082E+02 0.56350000000000E+03 0.97615316421144E+01 0.11650000000000E+03 0.57142857142857E+01 0.55780180812082E+02 0.00000000000000E+00 0.00000000000000E+00 0.00000000000000E+00
    -4.8004  0.57142857142857E+01 0.55780180812082E+02 0.56350000000000E+03 0.97615316421144E+01 0.11650000000000E+03 0.57142857142857E+01 0.55780180812082E+02 0.00000000000000E+00 0.00000000000000E+00 0.00000000000000E+00
    -4.7866  0.57142857142857E+01 0.55780180812082E+02 0.56350000000000E+03 0.97615316421144E+01 0.11650000000000E+03 0.57142857142857E+01 0.55780180812082E+02 0.00000000000000E+00 0.00000000000000E+00 0.00000000000000E+00
    -4.7728  0.57142857142857E+01 0.55780180812082E+02 0.56350000000000E+03 0.97615316421144E+01 0.11650000000000E+03 0.57142857142857E+01 0.55780180812082E+02 0.00000000000000E+00 0.00000000000000E+00 0.00000000000000E+00
    -4.7591  0.57142857142857E+01 0.55780180812082E+02 0.56350000000000E+03 0.97615316421144E+01 0.11650000000000E+03 0.57142857142857E+01 0.55780180812082E+02 0.00000000000000E+00 0.00000000000000E+00 0.00000000000000E+00
    -4.7453  0.57142857142857E+01 0.55780180812082E+02 0.56350000000000E+03 0.97615316421144E+01 0.11650000000000E+03 0.57142857142857E+01 0.55780180812082E+02 0.00000000000000E+00 0.00000000000000E+00 0.00000000000000E+00
    -4.7315  0.57142857142857E+01 0.55780180812082E+02 0.56350000000000E+03 0.97615316421144E+01 0.11650000000000E+03 0.57142857142857E+01 0.55780180812082E+02 0.00000000000000E+00 0.00000000000000E+00 0.00000000000000E+00
    -4.7178  0.57142857142857E+01 0.55780180812082E+02 0.56350000000000E+03 0.97615316421144E+01 0.11650000000000E+03 0.57142857142857E+01 0.55780180812082E+02 0.00000000000000E+00 0.00000000000000E+00 0.00000000000000E+00
    -4.7040  0.57142857142857E+01 0.55780180812082E+02 0.56350000000000E+03 0.97615316421144E+01 0.11650000000000E+03 0.57142857142857E+01 0.55780180812082E+02 0.00000000000000E+00 0.00000000000000E+00 0.00000000000000E+00
    -4.6902  0.57142857142857E+01 0.55780180812082E+02 0.56350000000000E+03 0.97615316421144E+01 0.11650000000000E+03 0.57142857142857E+01 0.55780180812082E+02 0.00000000000000E+00 0.00000000000000E+00 0.00000000000000E+00
    -4.6765  0.57142857142857E+01 0.55780180812082E+02 0.56350000000000E+03 0.97615316421144E+01 0.11650000000000E+03 0.57142857142857E+01 0.55780180812082E+02 0.00000000000000E+00 0.00000000000000E+00 0.00000000000000E+00
    -4.6627  0.57142857142857E+01 0.55780180812082E+02 0.56350000000000E+03 0.97615316421144E+01 0.11650000000000E+03 0.57142857142857E+01 0.55780180812082E+02 0.00000000000000E+00 0.00000000000000E+00 0.00000000000000E+00
    -4.6489  0.57142857142857E+01 0.55780180812082E+02 0.56350000000000E+03 0.97615316421144E+01 0.11650000000000E+03 0.57142857142857E+01 0.55780180812082E+02 0.00000000000000E+00 0.00000000000000E+00 0.00000000000000E+00
    -4.6352  0.57142857142857E+01 0.55780180812082E+02 0.56350000000000E+03 0.97615316421144E+01 0.11650000000000E+03 0.57142857142857E+01 0.55780180812082E+02 0.00000000000000E+00 0.00000000000000E+00 0.00000000000000E+00
    -4.6214  0.57142857142857E+01 0.55780180812082E+02 0.56350000000000E+03 0.97615316421144E+01 0.11650000000000E+03 0.57142857142857E+01 0.55780180812082E+02 0.00000000000000E+00 0.00000000000000E+00 0.00000000000000E+00
    -4.6076  0.57142857142857E+01 0.55780180812082E+02 0.56350000000000E+03 0.97615316421144E+01 0.11650000000000E+03 0.57142857142857E+01 0.55780180812082E+02 0.00000000000000E+00 0.00000000000000E+00 0.00000000000000E+00
    -4.5939  0.57142857142857E+01 0.55780180812082E+02 0.56350000000000E+03 0.97615316421144E+01 0.11650000000000E+03 0.57142857142857E+01 0.55780180812082E+02 0.00000000000000E+00 0.00000000000000E+00 0.00000000000000E+00
    -4.5801  0.57142857142857E+01 0.55780180812082E+02 0.56350000000000E+03 0.97615316421144E+01 0.11650000000000E+03 0.57142857142857E+01 0.55780180812082E+02 0.00000000000000E+00 0.00000000000000E+00 0.00000000000000E+00
    -4.5663  0.57142857142857E+01 0.55780180812082E+02 0.56350000000000E+03 0.97615316421144E+01 0.11650000000000E+03 0.57142857142857E+01 0.55780180812082E+02 0.00000000000000E+00 0.00000000000000E+00 0.00000000000000E+00
    -4.5526  0.57142857142857E+01 0.55780180812082E+02 0.56350000000000E+03 0.97615316421144E+01 0.11650000000000E+03 0.57142857142857E+01 0.55780180812082E+02 0.00000000000000E+00 0.00000000000000E+00 0.00000000000000E+00
    -4.5388  0.57142857142857E+01 0.55780180812082E+02 0.56350000000000E+03 0.97615316421144E+01 0.11650000000000E+03 0.57142857142857E+01 0.55780180812082E+02 0.00000000000000E+00 0.00000000000000E+00 0.00000000000000E+00
    -4.5250  0.57142857142857E+01 0.55780180812082E+02 0.56350000000000E+03 0.97615316421144E+01 0.11650000000000E+03 0.57142857142857E+01 0.55780180812082E+02 0.00000000000000E+00 0.00000000000000E+00 0.00000000000000E+00
    -4.5113  0.57142857142857E+01 0.55780180812082E+02 0.56350000000000E+03 0.97615316421144E+01 0.11650000000000E+03 0.57142857142857E+01 0.55780180812082E+02 0.00000000000000E+00 0.00000000000000E+00 0.00000000000000E+00
    -4.4975  0.57142857142857E+01 0.55780180812082E+02 0.56350000000000E+03 0.97615316421144E+01 0.11650000000000E+03 0.57142857142857E+01 0.55780180812082E+02 0.00000000000000E+00 0.00000000000000E+00 0.00000000000000E+00
    -4.4837  0.57142857142857E+01 0.55780180812082E+02 0.56350000000000E+03 0.97615316421144E+01 0.11650000000000E+03 0.57142857142857E+01 0.55780180812082E+02 0.00000000000000E+00 0.00000000000000E+00 0.00000000000000E+00
    -4.4700  0.57142857142857E+01 0.55780180812082E+02 0.56350000000000E+03 0.97615316421144E+01 0.11650000000000E+03 0.57142857142857E+01 0.55780180812082E+02 0.00000000000000E+00 0.00000000000000E+00 0.00000000000000E+00
    -4.4562  0.57142857142857E+01 0.55780180812082E+02 0.56350000000000E+03 0.97615316421144E+01 0.11650000000000E+03 0.57142857142857E+01 0.55780180812082E+02 0.00000000000000E+00 0.00000000000000E+00 0.00000000000000E+00
    -4.4424  0.57142857142857E+01 0.55780180812082E+02 0.56350000000000E+03 0.97615316421144E+01 0.11650000000000E+03 0.57142857142857E+01 0.55780180812082E+02 0.00000000000000E+00 0.00000000000000E+00 0.00000000000000E+00
    -4.4287  0.57142857142857E+01 0.55780180812082E+02 0.56350000000000E+03 0.97615316421144E+01 0.11650000000000E+03 0.57142857142857E+01 0.55780180812082E+02 0.00000000000000E+00 0.00000000000000E+00 0.00000000000000E+00
    -4.4149  0.57142857142857E+01 0.55780180812082E+02 0.56350000000000E+03 0.97615316421144E+01 0.11650000000000E+03 0.57142857142857E+01 0.55780180812082E+02 0.00000000000000E+00 0.00000000000000E+00 0.00000000000000E+00
    -4.4011  0.57142857142857E+01 0.55780180812082E+02 0.56350000000000E+03 0.97615316421144E+01 0.11650000000000E+03 0.57142857142857E+01 0.55780180812082E+02 0.00000000000000E+00 0.00000000000000E+00 0.00000000000000E+00
    -4.3874  0.57142857142857E+01 0.55780180812082E+02 0.56350000000000E+03 0.97615316421144E+01 0.11650000000000E+03 0.57142857142857E+01 0.55780180812082E+02 0.00000000000000E+00 0.00000000000000E+00 0.00000000000000E+00
    -4.3736  0.57142857142857E+01 0.55780180812082E+02 0.56350000000000E+03 0.97615316421144E+01 0.11650000000000E+03 0.57142857142857E+01 0.55780180812082E+02 0.00000000000000E+00 0.00000000000000E+00 0.00000000000000E+00
    -4.3598  0.57142857142857E+01 0.55780180812082E+02 0.56350000000000E+03 0.97615316421144E+01 0.11650000000000E+03 0.57142857142857E+01 0.55780180812082E+02 0.00000000000000E+00 0.00000000000000E+00 0.00000000000000E+00
    -4.3461  0.57142857142857E+01 0.55780180812082E+02 0.56350000000000E+03 0.97615316421144E+01 0.11650000000000E+03 0.57142857142857E+01 0.55780180812082E+02 0.00000000000000E+00 0.00000000000000E+00 0.00000000000000E+00
    -4.3323  0.57142857142857E+01 0.55780180812082E+02 0.56350000000000E+03 0.97615316421144E+01 0.11650000000000E+03 0.57142857142857E+01 0.55780180812082E+02 0.00000000000000E+00 0.00000000000000E+00 0.00000000000000E+00
    -4.3185  0.57142857142857E+01 0.55780180812082E+02 0.56350000000000E+03 0.97615316421144E+01 0.11650000000000E+03 0.57142857142857E+01 0.55780180812082E+02 0.00000000000000E+00 0.00000000000000E+00 0.00000000000000E+00
    -4.3048  0.57142857142857E+01 0.55780180812082E+02 0.56350000000000E+03 0.97615316421144E+01 0.11650000000000E+03 0.57142857142857E+01 0.55780180812082E+02 0.00000000000000E+00 0.00000000000000E+00 0.00000000000000E+00
    -4.2910  0.57142857142857E+01 0.55780180812082E+02 0.56350000000000E+03 0.97615316421144E+01 0.11650000000000E+03 0.57142857142857E+01 0.55780180812082E+02 0.00000000000000E+00 0.00000000000000E+00 0.00000000000000E+00
    -4.2772  0.57142857142857E+01 0.55780180812082E+02 0.56350000000000E+03 0.97615316421144E+01 0.11650000000000E+03 0.57142857142857E+01 0.55780180812082E+02 0.00000000000000E+00 0.00000000000000E+00 0.00000000000000E+00
    -4.2635  0.57142857142857E+01 0.55780180812082E+02 0.56350000000000E+03 0.97615316421144E+01 0.11650000000000E+03 0.57142857142857E+01 0.55780180812082E+02 0.00000000000000E+00 0.00000000000000E+00 0.00000000000000E+00
    -4.2497  0.57142857142857E+01 0.55780180812082E+02 0.56350000000000E+03 0.97615316421144E+01 0.11650000000000E+03 0.57142857142857E+01 0.55780180812082E+02 0.00000000000000E+00 0.00000000000000E+00 0.00000000000000E+00
    -4.2359  0.57142857142857E+01 0.55780180812082E+02 0.56350000000000E+03 0.97615316421144E+01 0.11650000000000E+03 0.57142857142857E+01 0.55780180812082E+02 0.00000000000000E+00 0.00000000000000E+00 0.00000000000000E+00
    -4.2222  0.57142857142857E+01 0.55780180812082E+02 0.56350000000000E+03 0.97615316421144E+01 0.11650000000000E+03 0.57142857142857E+01 0.55780180812082E+02 0.00000000000000E+00 0.00000000000000E+00 0.00000000000000E+00
    -4.2084  0.57142857142857E+01 0.55780180812082E+02 0.56350000000000E+03 0.97615316421144E+01 0.11650000000000E+03 0.57142857142857E+01 0.55780180812082E+02 0.00000000000000E+00 0.00000000000000E+00 0.00000000000000E+00
    -4.1946  0.57142857142857E+01 0.55780180812082E+02 0.56350000000000E+03 0.97615316421144E+01 0.11650000000000E+03 0.57142857142857E+01 0.55780180812082E+02 0.00000000000000E+00 0.00000000000000E+00 0.00000000000000E+00
    -4.1809  0.57142857142857E+01 0.55780180812082E+02 0.56350000000000E+03 0.97615316421144E+01 0.11650000000000E+03 0.57142857142857E+01 0.55780180812082E+02 0.00000000000000E+00 0.00000000000000E+00 0.00000000000000E+00
    -4.1671  0.57142857142857E+01 0.55780180812082E+02 0.56350000000000E+03 0.97615316421144E+01 0.11650000000000E+03 0.57142857142857E+01 0.55780180812082E+02 0.00000000000000E+00 0.00000000000000E+00 0.00000000000000E+00
    -4.1533  0.57142857142857E+01 0.55780180812082E+02 0.56350000000000E+03 0.97615316421144E+01 0.11650000000000E+03 0.57142857142857E+01 0.55780180812082E+02 0.00000000000000E+00 0.00000000000000E+00 0.00000000000000E+00
    -4.1395  0.57142857142857E+01 0.55780180812082E+02 0.56350000000000E+03 0.97615316421144E+01 0.11650000000000E+03 0.57142857142857E+01 0.55780180812082E+02 0.00000000000000E+00 0.00000000000000E+00 0.00000000000000E+00
    -4.1258  0.57142857142857E+01 0.55780180812082E+02 0.56350000000000E+03 0.97615316421144E+01 0.11650000000000E+03 0.57142857142857E+01 0.55780180812082E+02 0.00000000000000E+00 0.00000000000000E+00 0.00000000000000E+00
    -4.1120  0.57142857142857E+01 0.55780180812082E+02 0.56350000000000E+03 0.97615316421144E+01 0.11650000000000E+03 0.57142857142857E+01 0.55780180812082E+02 0.00000000000000E+00 0.00000000000000E+00 0.00000000000000E+00
    -4.0982  0.57142857142857E+01 0.55780180812082E+02 0.56350000000000E+03 0.97615316421144E+01 0.11650000000000E+03 0.57142857142857E+01 0.55780180812082E+02 0.00000000000000E+00 0.00000000000000E+00 0.00000000000000E+00
    -4.0845  0.57142857142857E+01 0.55780180812082E+02 0.56350000000000E+03 0.97615316421144E+01 0.11650000000000E+03 0.57142857142857E+01 0.55780180812082E+02 0.00000000000000E+00 0.00000000000000E+00 0.00000000000000E+00
    -4.0707  0.57142857142857E+01 0.55780180812082E+02 0.56350000000000E+03 0.97615316421144E+01 0.11650000000000E+03 0.57142857142857E+01 0.55780180812082E+02 0.00000000000000E+00 0.00000000000000E+00 0.00000000000000E+00
    -4.0569  0.57142857142857E+01 0.55780180812082E+02 0.56350000000000E+03 0.97615316421144E+01 0.11650000000000E+03 0.57142857142857E+01 0.55780180812082E+02 0.00000000000000E+00 0.00000000000000E+00 0.00000000000000E+00
    -4.0432  0.57142857142857E+01 0.55780180812082E+02 0.56350000000000E+03 0.97615316421144E+01 0.11650000000000E+03 0.57142857142857E+01 0.55780180812082E+02 0.00000000000000E+00 0.00000000000000E+00 0.00000000000000E+00
    -4.0294  0.57142857142857E+01 0.55780180812082E+02 0.56350000000000E+03 0.97615316421144E+01 0.11650000000000E+03 0.57142857142857E+01 0.55780180812082E+02 0.00000000000000E+00 0.00000000000000E+00 0.00000000000000E+00
    -4.0156  0.57142857142857E+01 0.55780180812082E+02 0.56350000000000E+03 0.97615316421144E+01 0.11650000000000E+03 0.57142857142857E+01 0.55780180812082E+02 0.00000000000000E+00 0.00000000000000E+00 0.00000000000000E+00
    -4.0019  0.57142857142857E+01 0.55780180812082E+02 0.56350000000000E+03 0.97615316421144E+01 0.11650000000000E+03 0.57142857142857E+01 0.55780180812082E+02 0.00000000000000E+00 0.00000000000000E+00 0.00000000000000E+00
    -3.9881  0.57142857142857E+01 0.55780180812082E+02 0.56350000000000E+03 0.97615316421144E+01 0.11650000000000E+03 0.57142857142857E+01 0.55780180812082E+02 0.00000000000000E+00 0.00000000000000E+00 0.00000000000000E+00
    -3.9743  0.57142857142857E+01 0.55780180812082E+02 0.56350000000000E+03 0.97615316421144E+01 0.11650000000000E+03 0.57142857142857E+01 0.55780180812082E+02 0.00000000000000E+00 0.00000000000000E+00 0.00000000000000E+00
    -3.9606  0.57142857142857E+01 0.55780180812082E+02 0.56350000000000E+03 0.97615316421144E+01 0.11650000000000E+03 0.57142857142857E+01 0.55780180812082E+02 0.00000000000000E+00 0.00000000000000E+00 0.00000000000000E+00
    -3.9468  0.57142857142857E+01 0.55780180812082E+02 0.56350000000000E+03 0.97615316421144E+01 0.11650000000000E+03 0.57142857142857E+01 0.55780180812082E+02 0.00000000000000E+00 0.00000000000000E+00 0.00000000000000E+00
    -3.9330  0.57142857142857E+01 0.55780180812082E+02 0.56350000000000E+03 0.97615316421144E+01 0.11650000000000E+03 0.57142857142857E+01 0.55780180812082E+02 0.00000000000000E+00 0.00000000000000E+00 0.00000000000000E+00
    -3.9193  0.57142857142857E+01 0.55780180812082E+02 0.56350000000000E+03 0.97615316421144E+01 0.11650000000000E+03 0.57142857142857E+01 0.55780180812082E+02 0.00000000000000E+00 0.00000000000000E+00 0.00000000000000E+00
    -3.9055  0.57142857142857E+01 0.55780180812082E+02 0.56350000000000E+03 0.97615316421144E+01 0.11650000000000E+03 0.57142857142857E+01 0.55780180812082E+02 0.00000000000000E+00 0.00000000000000E+00 0.00000000000000E+00
    -3.8917  0.57142857142857E+01 0.55780180812082E+02 0.56350000000000E+03 0.97615316421144E+01 0.11650000000000E+03 0.57142857142857E+01 0.55780180812082E+02 0.00000000000000E+00 0.00000000000000E+00 0.00000000000000E+00
    -3.8780  0.57142857142857E+01 0.55780180812082E+02 0.56350000000000E+03 0.97615316421144E+01 0.11650000000000E+03 0.57142857142857E+01 0.55780180812082E+02 0.00000000000000E+00 0.00000000000000E+00 0.00000000000000E+00
    -3.8642  0.57142857142857E+01 0.55780180812082E+02 0.56350000000000E+03 0.97615316421144E+01 0.11650000000000E+03 0.57142857142857E+01 0.55780180812082E+02 0.00000000000000E+00 0.00000000000000E+00 0.00000000000000E+00
    -3.8504  0.57142857142857E+01 0.55780180812082E+02 0.56350000000000E+03 0.97615316421144E+01 0.11650000000000E+03 0.57142857142857E+01 0.55780180812082E+02 0.00000000000000E+00 0.00000000000000E+00 0.00000000000000E+00
    -3.8367  0.57142857142857E+01 0.55780180812082E+02 0.56350000000000E+03 0.97615316421144E+01 0.11650000000000E+03 0.57142857142857E+01 0.55780180812082E+02 0.00000000000000E+00 0.00000000000000E+00 0.00000000000000E+00
    -3.8229  0.57142857142857E+01 0.55780180812082E+02 0.56350000000000E+03 0.97615316421144E+01 0.11650000000000E+03 0.57142857142857E+01 0.55780180812082E+02 0.00000000000000E+00 0.00000000000000E+00 0.00000000000000E+00
    -3.8091  0.57142857142857E+01 0.55780180812082E+02 0.56350000000000E+03 0.97615316421144E+01 0.11650000000000E+03 0.57142857142857E+01 0.55780180812082E+02 0.00000000000000E+00 0.00000000000000E+00 0.00000000000000E+00
    -3.7954  0.57142857142857E+01 0.55780180812082E+02 0.56350000000000E+03 0.97615316421144E+01 0.11650000000000E+03 0.57142857142857E+01 0.55780180812082E+02 0.00000000000000E+00 0.00000000000000E+00 0.00000000000000E+00
    -3.7816  0.57142857142857E+01 0.55780180812082E+02 0.56350000000000E+03 0.97615316421144E+01 0.11650000000000E+03 0.57142857142857E+01 0.55780180812082E+02 0.00000000000000E+00 0.00000000000000E+00 0.00000000000000E+00
    -3.7678  0.57142857142857E+01 0.55780180812082E+02 0.56350000000000E+03 0.97615316421144E+01 0.11650000000000E+03 0.57142857142857E+01 0.55780180812082E+02 0.00000000000000E+00 0.00000000000000E+00 0.00000000000000E+00
    -3.7541  0.57142857142857E+01 0.55780180812082E+02 0.56350000000000E+03 0.97615316421144E+01 0.11650000000000E+03 0.57142857142857E+01 0.55780180812082E+02 0.00000000000000E+00 0.00000000000000E+00 0.00000000000000E+00
    -3.7403  0.57142857142857E+01 0.55780180812082E+02 0.56350000000000E+03 0.97615316421144E+01 0.11650000000000E+03 0.57142857142857E+01 0.55780180812082E+02 0.00000000000000E+00 0.00000000000000E+00 0.00000000000000E+00
    -3.7265  0.57142857142857E+01 0.55780180812082E+02 0.56350000000000E+03 0.97615316421144E+01 0.11650000000000E+03 0.57142857142857E+01 0.55780180812082E+02 0.00000000000000E+00 0.00000000000000E+00 0.00000000000000E+00
    -3.7128  0.57142857142857E+01 0.55780180812082E+02 0.56350000000000E+03 0.97615316421144E+01 0.11650000000000E+03 0.57142857142857E+01 0.55780180812082E+02 0.00000000000000E+00 0.00000000000000E+00 0.00000000000000E+00
    -3.6990  0.57142857142857E+01 0.55780180812082E+02 0.56350000000000E+03 0.97615316421144E+01 0.11650000000000E+03 0.57142857142857E+01 0.55780180812082E+02 0.00000000000000E+00 0.00000000000000E+00 0.00000000000000E+00
    -3.6852  0.57142857142857E+01 0.55780180812082E+02 0.56350000000000E+03 0.97615316421144E+01 0.11650000000000E+03 0.57142857142857E+01 0.55780180812082E+02 0.00000000000000E+00 0.00000000000000E+00 0.00000000000000E+00
    -3.6715  0.57142857142857E+01 0.55780180812082E+02 0.56350000000000E+03 0.97615316421144E+01 0.11650000000000E+03 0.57142857142857E+01 0.55780180812082E+02 0.00000000000000E+00 0.00000000000000E+00 0.00000000000000E+00
    -3.6577  0.57142857142857E+01 0.55780180812082E+02 0.56350000000000E+03 0.97615316421144E+01 0.11650000000000E+03 0.57142857142857E+01 0.55780180812082E+02 0.00000000000000E+00 0.00000000000000E+00 0.00000000000000E+00
    -3.6439  0.57142857142857E+01 0.55780180812082E+02 0.56350000000000E+03 0.97615316421144E+01 0.11650000000000E+03 0.57142857142857E+01 0.55780180812082E+02 0.00000000000000E+00 0.00000000000000E+00 0.00000000000000E+00
    -3.6302  0.57142857142857E+01 0.55780180812082E+02 0.56350000000000E+03 0.97615316421144E+01 0.11650000000000E+03 0.57142857142857E+01 0.55780180812082E+02 0.00000000000000E+00 0.00000000000000E+00 0.00000000000000E+00
    -3.6164  0.57142857142857E+01 0.55780180812082E+02 0.56350000000000E+03 0.97615316421144E+01 0.11650000000000E+03 0.57142857142857E+01 0.55780180812082E+02 0.00000000000000E+00 0.00000000000000E+00 0.00000000000000E+00
    -3.6026  0.57142857142857E+01 0.55780180812082E+02 0.56350000000000E+03 0.97615316421144E+01 0.11650000000000E+03 0.57142857142857E+01 0.55780180812082E+02 0.00000000000000E+00 0.00000000000000E+00 0.00000000000000E+00
    -3.5889  0.57142857142857E+01 0.55780180812082E+02 0.56350000000000E+03 0.97615316421144E+01 0.11650000000000E+03 0.57142857142857E+01 0.55780180812082E+02 0.00000000000000E+00 0.00000000000000E+00 0.00000000000000E+00
    -3.5751  0.57142857142857E+01 0.55780180812082E+02 0.56350000000000E+03 0.97615316421144E+01 0.11650000000000E+03 0.57142857142857E+01 0.55780180812082E+02 0.00000000000000E+00 0.00000000000000E+00 0.00000000000000E+00
    -3.5613  0.57142857142857E+01 0.55780180812082E+02 0.56350000000000E+03 0.97615316421144E+01 0.11650000000000E+03 0.57142857142857E+01 0.55780180812082E+02 0.00000000000000E+00 0.00000000000000E+00 0.00000000000000E+00
    -3.5476  0.57142857142857E+01 0.55780180812082E+02 0.56350000000000E+03 0.97615316421144E+01 0.11650000000000E+03 0.57142857142857E+01 0.55780180812082E+02 0.00000000000000E+00 0.00000000000000E+00 0.00000000000000E+00
    -3.5338  0.57142857142857E+01 0.55780180812082E+02 0.56350000000000E+03 0.97615316421144E+01 0.11650000000000E+03 0.57142857142857E+01 0.55780180812082E+02 0.00000000000000E+00 0.00000000000000E+00 0.00000000000000E+00
    -3.5200  0.57142857142857E+01 0.55780180812082E+02 0.56350000000000E+03 0.97615316421144E+01 0.11650000000000E+03 0.57142857142857E+01 0.55780180812082E+02 0.00000000000000E+00 0.00000000000000E+00 0.00000000000000E+00
    -3.5063  0.57142857142857E+01 0.55780180812082E+02 0.56350000000000E+03 0.97615316421144E+01 0.11650000000000E+03 0.57142857142857E+01 0.55780180812082E+02 0.00000000000000E+00 0.00000000000000E+00 0.00000000000000E+00
    -3.4925  0.57142857142857E+01 0.55780180812082E+02 0.56350000000000E+03 0.97615316421144E+01 0.11650000000000E+03 0.57142857142857E+01 0.55780180812082E+02 0.00000000000000E+00 0.00000000000000E+00 0.00000000000000E+00
    -3.4787  0.57142857142857E+01 0.55780180812082E+02 0.56350000000000E+03 0.97615316421144E+01 0.11650000000000E+03 0.57142857142857E+01 0.55780180812082E+02 0.00000000000000E+00 0.00000000000000E+00 0.00000000000000E+00
    -3.4650  0.57142857142857E+01 0.55780180812082E+02 0.56350000000000E+03 0.97615316421144E+01 0.11650000000000E+03 0.57142857142857E+01 0.55780180812082E+02 0.00000000000000E+00 0.00000000000000E+00 0.00000000000000E+00
    -3.4512  0.57142857142857E+01 0.55780180812082E+02 0.56350000000000E+03 0.97615316421144E+01 0.11650000000000E+03 0.57142857142857E+01 0.55780180812082E+02 0.00000000000000E+00 0.00000000000000E+00 0.00000000000000E+00
    -3.4374  0.57142857142857E+01 0.55780180812082E+02 0.56350000000000E+03 0.97615316421144E+01 0.11650000000000E+03 0.57142857142857E+01 0.55780180812082E+02 0.00000000000000E+00 0.00000000000000E+00 0.00000000000000E+00
    -3.4237  0.57142857142857E+01 0.55780180812082E+02 0.56350000000000E+03 0.97615316421144E+01 0.11650000000000E+03 0.57142857142857E+01 0.55780180812082E+02 0.00000000000000E+00 0.00000000000000E+00 0.00000000000000E+00
    -3.4099  0.57142857142857E+01 0.55780180812082E+02 0.56350000000000E+03 0.97615316421144E+01 0.11650000000000E+03 0.57142857142857E+01 0.55780180812082E+02 0.00000000000000E+00 0.00000000000000E+00 0.00000000000000E+00
    -3.3961  0.57142857142857E+01 0.55780180812082E+02 0.56350000000000E+03 0.97615316421144E+01 0.11650000000000E+03 0.57142857142857E+01 0.55780180812082E+02 0.00000000000000E+00 0.00000000000000E+00 0.00000000000000E+00
    -3.3824  0.57142857142857E+01 0.55780180812082E+02 0.56350000000000E+03 0.97615316421144E+01 0.11650000000000E+03 0.57142857142857E+01 0.55780180812082E+02 0.00000000000000E+00 0.00000000000000E+00 0.00000000000000E+00
    -3.3686  0.57142857142857E+01 0.55780180812082E+02 0.56350000000000E+03 0.97615316421144E+01 0.11650000000000E+03 0.57142857142857E+01 0.55780180812082E+02 0.00000000000000E+00 0.00000000000000E+00 0.00000000000000E+00
    -3.3548  0.57142857142857E+01 0.55780180812082E+02 0.56350000000000E+03 0.97615316421144E+01 0.11650000000000E+03 0.57142857142857E+01 0.55780180812082E+02 0.00000000000000E+00 0.00000000000000E+00 0.00000000000000E+00
    -3.3411  0.57142857142857E+01 0.55780180812082E+02 0.56350000000000E+03 0.97615316421144E+01 0.11650000000000E+03 0.57142857142857E+01 0.55780180812082E+02 0.00000000000000E+00 0.00000000000000E+00 0.00000000000000E+00
    -3.3273  0.57142857142857E+01 0.55780180812082E+02 0.56350000000000E+03 0.97615316421144E+01 0.11650000000000E+03 0.57142857142857E+01 0.55780180812082E+02 0.00000000000000E+00 0.00000000000000E+00 0.00000000000000E+00
    -3.3135  0.57142857142857E+01 0.55780180812082E+02 0.56350000000000E+03 0.97615316421144E+01 0.11650000000000E+03 0.57142857142857E+01 0.55780180812082E+02 0.00000000000000E+00 0.00000000000000E+00 0.00000000000000E+00
    -3.2997  0.57142857142857E+01 0.55780180812082E+02 0.56350000000000E+03 0.97615316421144E+01 0.11650000000000E+03 0.57142857142857E+01 0.55780180812082E+02 0.00000000000000E+00 0.00000000000000E+00 0.00000000000000E+00
    -3.2860  0.57142857142857E+01 0.55780180812082E+02 0.56350000000000E+03 0.97615316421144E+01 0.11650000000000E+03 0.57142857142857E+01 0.55780180812082E+02 0.00000000000000E+00 0.00000000000000E+00 0.00000000000000E+00
    -3.2722  0.57142857142857E+01 0.55780180812082E+02 0.56350000000000E+03 0.97615316421144E+01 0.11650000000000E+03 0.57142857142857E+01 0.55780180812082E+02 0.00000000000000E+00 0.00000000000000E+00 0.00000000000000E+00
    -3.2584  0.57142857142857E+01 0.55780180812082E+02 0.56350000000000E+03 0.97615316421144E+01 0.11650000000000E+03 0.57142857142857E+01 0.55780180812082E+02 0.00000000000000E+00 0.00000000000000E+00 0.00000000000000E+00
    -3.2447  0.57142857142857E+01 0.55780180812082E+02 0.56350000000000E+03 0.97615316421144E+01 0.11650000000000E+03 0.57142857142857E+01 0.55780180812082E+02 0.00000000000000E+00 0.00000000000000E+00 0.00000000000000E+00