 TITLE="particledata"
 Variables = time, xpart, upart, Tpart
 Zone T="          0" I=    1000
     0.0000  0.00000000000000E+00 0.00000000000000E+00 0.14000000000000E+01
     0.0000  0.29837529837530E-03 0.00000000000000E+00 0.14000000000000E+01
     0.0000  0.59675059675060E-03 0.00000000000000E+00 0.14000000000000E+01
     0.0000  0.89512589512590E-03 0.00000000000000E+00 0.14000000000000E+01
     0.0000  0.11935011935012E-02 0.00000000000000E+00 0.14000000000000E+01
     0.0000  0.14918764918765E-02 0.00000000000000E+00 0.14000000000000E+01
     0.0000  0.17902517902518E-02 0.00000000000000E+00 0.14000000000000E+01
     0.0000  0.20886270886271E-02 0.00000000000000E+00 0.14000000000000E+01
     0.0000  0.23870023870024E-02 0.00000000000000E+00 0.14000000000000E+01
     0.0000  0.26853776853777E-02 0.00000000000000E+00 0.14000000000000E+01
     0.0000  0.29837529837530E-02 0.00000000000000E+00 0.14000000000000E+01
     0.0000  0.32821282821283E-02 0.00000000000000E+00 0.14000000000000E+01
     0.0000  0.35805035805036E-02 0.00000000000000E+00 0.14000000000000E+01
     0.0000  0.38788788788789E-02 0.00000000000000E+00 0.14000000000000E+01
     0.0000  0.41772541772542E-02 0.00000000000000E+00 0.14000000000000E+01
     0.0000  0.44756294756295E-02 0.00000000000000E+00 0.14000000000000E+01
     0.0000  0.47740047740048E-02 0.00000000000000E+00 0.14000000000000E+01
     0.0000  0.50723800723801E-02 0.00000000000000E+00 0.14000000000000E+01
     0.0000  0.53707553707554E-02 0.00000000000000E+00 0.14000000000000E+01
     0.0000  0.56691306691307E-02 0.00000000000000E+00 0.14000000000000E+01
     0.0000  0.59675059675060E-02 0.00000000000000E+00 0.14000000000000E+01
     0.0000  0.62658812658813E-02 0.00000000000000E+00 0.14000000000000E+01
     0.0000  0.65642565642566E-02 0.00000000000000E+00 0.14000000000000E+01
     0.0000  0.68626318626319E-02 0.00000000000000E+00 0.14000000000000E+01
     0.0000  0.71610071610072E-02 0.00000000000000E+00 0.14000000000000E+01
     0.0000  0.74593824593825E-02 0.00000000000000E+00 0.14000000000000E+01
     0.0000  0.77577577577578E-02 0.00000000000000E+00 0.14000000000000E+01
     0.0000  0.80561330561331E-02 0.00000000000000E+00 0.14000000000000E+01
     0.0000  0.83545083545084E-02 0.00000000000000E+00 0.14000000000000E+01
     0.0000  0.86528836528837E-02 0.00000000000000E+00 0.14000000000000E+01
     0.0000  0.89512589512590E-02 0.00000000000000E+00 0.14000000000000E+01
     0.0000  0.92496342496342E-02 0.00000000000000E+00 0.14000000000000E+01
     0.0000  0.95480095480095E-02 0.00000000000000E+00 0.14000000000000E+01
     0.0000  0.98463848463848E-02 0.00000000000000E+00 0.14000000000000E+01
     0.0000  0.10144760144760E-01 0.00000000000000E+00 0.14000000000000E+01
     0.0000  0.10443135443135E-01 0.00000000000000E+00 0.14000000000000E+01
     0.0000  0.10741510741511E-01 0.00000000000000E+00 0.14000000000000E+01
     0.0000  0.11039886039886E-01 0.00000000000000E+00 0.14000000000000E+01
     0.0000  0.11338261338261E-01 0.00000000000000E+00 0.14000000000000E+01
     0.0000  0.11636636636637E-01 0.00000000000000E+00 0.14000000000000E+01
     0.0000  0.11935011935012E-01 0.00000000000000E+00 0.14000000000000E+01
     0.0000  0.12233387233387E-01 0.00000000000000E+00 0.14000000000000E+01
     0.0000  0.12531762531763E-01 0.00000000000000E+00 0.14000000000000E+01
     0.0000  0.12830137830138E-01 0.00000000000000E+00 0.14000000000000E+01
     0.0000  0.13128513128513E-01 0.00000000000000E+00 0.14000000000000E+01
     0.0000  0.13426888426888E-01 0.00000000000000E+00 0.14000000000000E+01
     0.0000  0.13725263725264E-01 0.00000000000000E+00 0.14000000000000E+01
     0.0000  0.14023639023639E-01 0.00000000000000E+00 0.14000000000000E+01
     0.0000  0.14322014322014E-01 0.00000000000000E+00 0.14000000000000E+01
     0.0000  0.14620389620390E-01 0.00000000000000E+00 0.14000000000000E+01
     0.0000  0.14918764918765E-01 0.00000000000000E+00 0.14000000000000E+01
     0.0000  0.15217140217140E-01 0.00000000000000E+00 0.14000000000000E+01
     0.0000  0.15515515515516E-01 0.00000000000000E+00 0.14000000000000E+01
     0.0000  0.15813890813891E-01 0.00000000000000E+00 0.14000000000000E+01
     0.0000  0.16112266112266E-01 0.00000000000000E+00 0.14000000000000E+01
     0.0000  0.16410641410641E-01 0.00000000000000E+00 0.14000000000000E+01
     0.0000  0.16709016709017E-01 0.00000000000000E+00 0.14000000000000E+01
     0.0000  0.17007392007392E-01 0.00000000000000E+00 0.14000000000000E+01
     0.0000  0.17305767305767E-01 0.00000000000000E+00 0.14000000000000E+01
     0.0000  0.17604142604143E-01 0.00000000000000E+00 0.14000000000000E+01
     0.0000  0.17902517902518E-01 0.00000000000000E+00 0.14000000000000E+01
     0.0000  0.18200893200893E-01 0.00000000000000E+00 0.14000000000000E+01
     0.0000  0.18499268499268E-01 0.00000000000000E+00 0.14000000000000E+01
     0.0000  0.18797643797644E-01 0.00000000000000E+00 0.14000000000000E+01
     0.0000  0.19096019096019E-01 0.00000000000000E+00 0.14000000000000E+01
     0.0000  0.19394394394394E-01 0.00000000000000E+00 0.14000000000000E+01
     0.0000  0.19692769692770E-01 0.00000000000000E+00 0.14000000000000E+01
     0.0000  0.19991144991145E-01 0.00000000000000E+00 0.14000000000000E+01
     0.0000  0.20289520289520E-01 0.00000000000000E+00 0.14000000000000E+01
     0.0000  0.20587895587896E-01 0.00000000000000E+00 0.14000000000000E+01
     0.0000  0.20886270886271E-01 0.00000000000000E+00 0.14000000000000E+01
     0.0000  0.21184646184646E-01 0.00000000000000E+00 0.14000000000000E+01
     0.0000  0.21483021483021E-01 0.00000000000000E+00 0.14000000000000E+01
     0.0000  0.21781396781397E-01 0.00000000000000E+00 0.14000000000000E+01
     0.0000  0.22079772079772E-01 0.00000000000000E+00 0.14000000000000E+01
     0.0000  0.22378147378147E-01 0.00000000000000E+00 0.14000000000000E+01
     0.0000  0.22676522676523E-01 0.00000000000000E+00 0.14000000000000E+01
     0.0000  0.22974897974898E-01 0.00000000000000E+00 0.14000000000000E+01
     0.0000  0.23273273273273E-01 0.00000000000000E+00 0.14000000000000E+01
     0.0000  0.23571648571649E-01 0.00000000000000E+00 0.14000000000000E+01
     0.0000  0.23870023870024E-01 0.00000000000000E+00 0.14000000000000E+01
     0.0000  0.24168399168399E-01 0.00000000000000E+00 0.14000000000000E+01
     0.0000  0.24466774466774E-01 0.00000000000000E+00 0.14000000000000E+01
     0.0000  0.24765149765150E-01 0.00000000000000E+00 0.14000000000000E+01
     0.0000  0.25063525063525E-01 0.00000000000000E+00 0.14000000000000E+01
     0.0000  0.25361900361900E-01 0.00000000000000E+00 0.14000000000000E+01
     0.0000  0.25660275660276E-01 0.00000000000000E+00 0.14000000000000E+01
     0.0000  0.25958650958651E-01 0.00000000000000E+00 0.14000000000000E+01
     0.0000  0.26257026257026E-01 0.00000000000000E+00 0.14000000000000E+01
     0.0000  0.26555401555402E-01 0.00000000000000E+00 0.14000000000000E+01
     0.0000  0.26853776853777E-01 0.00000000000000E+00 0.14000000000000E+01
     0.0000  0.27152152152152E-01 0.00000000000000E+00 0.14000000000000E+01
     0.0000  0.27450527450527E-01 0.00000000000000E+00 0.14000000000000E+01
     0.0000  0.27748902748903E-01 0.00000000000000E+00 0.14000000000000E+01
     0.0000  0.28047278047278E-01 0.00000000000000E+00 0.14000000000000E+01
     0.0000  0.28345653345653E-01 0.00000000000000E+00 0.14000000000000E+01
     0.0000  0.28644028644029E-01 0.00000000000000E+00 0.14000000000000E+01
     0.0000  0.28942403942404E-01 0.00000000000000E+00 0.14000000000000E+01
     0.0000  0.29240779240779E-01 0.00000000000000E+00 0.14000000000000E+01
     0.0000  0.29539154539155E-01 0.00000000000000E+00 0.14000000000000E+01
     0.0000  0.29837529837530E-01 0.00000000000000E+00 0.14000000000000E+01
     0.0000  0.30135905135905E-01 0.00000000000000E+00 0.14000000000000E+01
     0.0000  0.30434280434280E-01 0.00000000000000E+00 0.14000000000000E+01
     0.0000  0.30732655732656E-01 0.00000000000000E+00 0.14000000000000E+01
     0.0000  0.31031031031031E-01 0.00000000000000E+00 0.14000000000000E+01
     0.0000  0.31329406329406E-01 0.00000000000000E+00 0.14000000000000E+01
     0.0000  0.31627781627782E-01 0.00000000000000E+00 0.14000000000000E+01
     0.0000  0.31926156926157E-01 0.00000000000000E+00 0.14000000000000E+01
     0.0000  0.32224532224532E-01 0.00000000000000E+00 0.14000000000000E+01
     0.0000  0.32522907522908E-01 0.00000000000000E+00 0.14000000000000E+01
     0.0000  0.32821282821283E-01 0.00000000000000E+00 0.14000000000000E+01
     0.0000  0.33119658119658E-01 0.00000000000000E+00 0.14000000000000E+01
     0.0000  0.33418033418033E-01 0.00000000000000E+00 0.14000000000000E+01
     0.0000  0.33716408716409E-01 0.00000000000000E+00 0.14000000000000E+01
     0.0000  0.34014784014784E-01 0.00000000000000E+00 0.14000000000000E+01
     0.0000  0.34313159313159E-01 0.00000000000000E+00 0.14000000000000E+01
     0.0000  0.34611534611535E-01 0.00000000000000E+00 0.14000000000000E+01
     0.0000  0.34909909909910E-01 0.00000000000000E+00 0.14000000000000E+01
     0.0000  0.35208285208285E-01 0.00000000000000E+00 0.14000000000000E+01
     0.0000  0.35506660506661E-01 0.00000000000000E+00 0.14000000000000E+01
     0.0000  0.35805035805036E-01 0.00000000000000E+00 0.14000000000000E+01
     0.0000  0.36103411103411E-01 0.00000000000000E+00 0.14000000000000E+01
     0.0000  0.36401786401786E-01 0.00000000000000E+00 0.14000000000000E+01
     0.0000  0.36700161700162E-01 0.00000000000000E+00 0.14000000000000E+01
     0.0000  0.36998536998537E-01 0.00000000000000E+00 0.14000000000000E+01
     0.0000  0.37296912296912E-01 0.00000000000000E+00 0.14000000000000E+01
     0.0000  0.37595287595288E-01 0.00000000000000E+00 0.14000000000000E+01
     0.0000  0.37893662893663E-01 0.00000000000000E+00 0.14000000000000E+01
     0.0000  0.38192038192038E-01 0.00000000000000E+00 0.14000000000000E+01
     0.0000  0.38490413490413E-01 0.00000000000000E+00 0.14000000000000E+01
     0.0000  0.38788788788789E-01 0.00000000000000E+00 0.14000000000000E+01
     0.0000  0.39087164087164E-01 0.00000000000000E+00 0.14000000000000E+01
     0.0000  0.39385539385539E-01 0.00000000000000E+00 0.14000000000000E+01
     0.0000  0.39683914683915E-01 0.00000000000000E+00 0.14000000000000E+01
     0.0000  0.39982289982290E-01 0.00000000000000E+00 0.14000000000000E+01
     0.0000  0.40280665280665E-01 0.00000000000000E+00 0.14000000000000E+01
     0.0000  0.40579040579041E-01 0.00000000000000E+00 0.14000000000000E+01
     0.0000  0.40877415877416E-01 0.00000000000000E+00 0.14000000000000E+01
     0.0000  0.41175791175791E-01 0.00000000000000E+00 0.14000000000000E+01
     0.0000  0.41474166474166E-01 0.00000000000000E+00 0.14000000000000E+01
     0.0000  0.41772541772542E-01 0.00000000000000E+00 0.14000000000000E+01
     0.0000  0.42070917070917E-01 0.00000000000000E+00 0.14000000000000E+01
     0.0000  0.42369292369292E-01 0.00000000000000E+00 0.14000000000000E+01
     0.0000  0.42667667667668E-01 0.00000000000000E+00 0.14000000000000E+01
     0.0000  0.42966042966043E-01 0.00000000000000E+00 0.14000000000000E+01
     0.0000  0.43264418264418E-01 0.00000000000000E+00 0.14000000000000E+01
     0.0000  0.43562793562794E-01 0.00000000000000E+00 0.14000000000000E+01
     0.0000  0.43861168861169E-01 0.00000000000000E+00 0.14000000000000E+01
     0.0000  0.44159544159544E-01 0.00000000000000E+00 0.14000000000000E+01
     0.0000  0.44457919457919E-01 0.00000000000000E+00 0.14000000000000E+01
     0.0000  0.44756294756295E-01 0.00000000000000E+00 0.14000000000000E+01
     0.0000  0.45054670054670E-01 0.00000000000000E+00 0.14000000000000E+01
     0.0000  0.45353045353045E-01 0.00000000000000E+00 0.14000000000000E+01
     0.0000  0.45651420651421E-01 0.00000000000000E+00 0.14000000000000E+01
     0.0000  0.45949795949796E-01 0.00000000000000E+00 0.14000000000000E+01
     0.0000  0.46248171248171E-01 0.00000000000000E+00 0.14000000000000E+01
     0.0000  0.46546546546547E-01 0.00000000000000E+00 0.14000000000000E+01
     0.0000  0.46844921844922E-01 0.00000000000000E+00 0.14000000000000E+01
     0.0000  0.47143297143297E-01 0.00000000000000E+00 0.14000000000000E+01
     0.0000  0.47441672441672E-01 0.00000000000000E+00 0.14000000000000E+01
     0.0000  0.47740047740048E-01 0.00000000000000E+00 0.14000000000000E+01
     0.0000  0.48038423038423E-01 0.00000000000000E+00 0.14000000000000E+01
     0.0000  0.48336798336798E-01 0.00000000000000E+00 0.14000000000000E+01
     0.0000  0.48635173635174E-01 0.00000000000000E+00 0.14000000000000E+01
     0.0000  0.48933548933549E-01 0.00000000000000E+00 0.14000000000000E+01
     0.0000  0.49231924231924E-01 0.00000000000000E+00 0.14000000000000E+01
     0.0000  0.49530299530300E-01 0.00000000000000E+00 0.14000000000000E+01
     0.0000  0.49828674828675E-01 0.00000000000000E+00 0.14000000000000E+01
     0.0000  0.50127050127050E-01 0.00000000000000E+00 0.14000000000000E+01
     0.0000  0.50425425425425E-01 0.00000000000000E+00 0.14000000000000E+01
     0.0000  0.50723800723801E-01 0.00000000000000E+00 0.14000000000000E+01
     0.0000  0.51022176022176E-01 0.00000000000000E+00 0.14000000000000E+01
     0.0000  0.51320551320551E-01 0.00000000000000E+00 0.14000000000000E+01
     0.0000  0.51618926618927E-01 0.00000000000000E+00 0.14000000000000E+01
     0.0000  0.51917301917302E-01 0.00000000000000E+00 0.14000000000000E+01
     0.0000  0.52215677215677E-01 0.00000000000000E+00 0.14000000000000E+01
     0.0000  0.52514052514053E-01 0.00000000000000E+00 0.14000000000000E+01
     0.0000  0.52812427812428E-01 0.00000000000000E+00 0.14000000000000E+01
     0.0000  0.53110803110803E-01 0.00000000000000E+00 0.14000000000000E+01
     0.0000  0.53409178409178E-01 0.00000000000000E+00 0.14000000000000E+01
     0.0000  0.53707553707554E-01 0.00000000000000E+00 0.14000000000000E+01
     0.0000  0.54005929005929E-01 0.00000000000000E+00 0.14000000000000E+01
     0.0000  0.54304304304304E-01 0.00000000000000E+00 0.14000000000000E+01
     0.0000  0.54602679602680E-01 0.00000000000000E+00 0.14000000000000E+01
     0.0000  0.54901054901055E-01 0.00000000000000E+00 0.14000000000000E+01
     0.0000  0.55199430199430E-01 0.00000000000000E+00 0.14000000000000E+01
     0.0000  0.55497805497805E-01 0.00000000000000E+00 0.14000000000000E+01
     0.0000  0.55796180796181E-01 0.00000000000000E+00 0.14000000000000E+01
     0.0000  0.56094556094556E-01 0.00000000000000E+00 0.14000000000000E+01
     0.0000  0.56392931392931E-01 0.00000000000000E+00 0.14000000000000E+01
     0.0000  0.56691306691307E-01 0.00000000000000E+00 0.14000000000000E+01
     0.0000  0.56989681989682E-01 0.00000000000000E+00 0.14000000000000E+01
     0.0000  0.57288057288057E-01 0.00000000000000E+00 0.14000000000000E+01
     0.0000  0.57586432586433E-01 0.00000000000000E+00 0.14000000000000E+01
     0.0000  0.57884807884808E-01 0.00000000000000E+00 0.14000000000000E+01
     0.0000  0.58183183183183E-01 0.00000000000000E+00 0.14000000000000E+01
     0.0000  0.58481558481558E-01 0.00000000000000E+00 0.14000000000000E+01
     0.0000  0.58779933779934E-01 0.00000000000000E+00 0.14000000000000E+01
     0.0000  0.59078309078309E-01 0.00000000000000E+00 0.14000000000000E+01
     0.0000  0.59376684376684E-01 0.00000000000000E+00 0.14000000000000E+01
     0.0000  0.59675059675060E-01 0.00000000000000E+00 0.14000000000000E+01
     0.0000  0.59973434973435E-01 0.00000000000000E+00 0.14000000000000E+01
     0.0000  0.60271810271810E-01 0.00000000000000E+00 0.14000000000000E+01
     0.0000  0.60570185570186E-01 0.00000000000000E+00 0.14000000000000E+01
     0.0000  0.60868560868561E-01 0.00000000000000E+00 0.14000000000000E+01
     0.0000  0.61166936166936E-01 0.00000000000000E+00 0.14000000000000E+01
     0.0000  0.61465311465311E-01 0.00000000000000E+00 0.14000000000000E+01
     0.0000  0.61763686763687E-01 0.00000000000000E+00 0.14000000000000E+01
     0.0000  0.62062062062062E-01 0.00000000000000E+00 0.14000000000000E+01
     0.0000  0.62360437360437E-01 0.00000000000000E+00 0.14000000000000E+01
     0.0000  0.62658812658813E-01 0.00000000000000E+00 0.14000000000000E+01
     0.0000  0.62957187957188E-01 0.00000000000000E+00 0.14000000000000E+01
     0.0000  0.63255563255563E-01 0.00000000000000E+00 0.14000000000000E+01
     0.0000  0.63553938553939E-01 0.00000000000000E+00 0.14000000000000E+01
     0.0000  0.63852313852314E-01 0.00000000000000E+00 0.14000000000000E+01
     0.0000  0.64150689150689E-01 0.00000000000000E+00 0.14000000000000E+01
     0.0000  0.64449064449064E-01 0.00000000000000E+00 0.14000000000000E+01
     0.0000  0.64747439747440E-01 0.00000000000000E+00 0.14000000000000E+01
     0.0000  0.65045815045815E-01 0.00000000000000E+00 0.14000000000000E+01
     0.0000  0.65344190344190E-01 0.00000000000000E+00 0.14000000000000E+01
     0.0000  0.65642565642566E-01 0.00000000000000E+00 0.14000000000000E+01
     0.0000  0.65940940940941E-01 0.00000000000000E+00 0.14000000000000E+01
     0.0000  0.66239316239316E-01 0.00000000000000E+00 0.14000000000000E+01
     0.0000  0.66537691537692E-01 0.00000000000000E+00 0.14000000000000E+01
     0.0000  0.66836066836067E-01 0.00000000000000E+00 0.14000000000000E+01
     0.0000  0.67134442134442E-01 0.00000000000000E+00 0.14000000000000E+01
     0.0000  0.67432817432817E-01 0.00000000000000E+00 0.14000000000000E+01
     0.0000  0.67731192731193E-01 0.00000000000000E+00 0.14000000000000E+01
     0.0000  0.68029568029568E-01 0.00000000000000E+00 0.14000000000000E+01
     0.0000  0.68327943327943E-01 0.00000000000000E+00 0.14000000000000E+01
     0.0000  0.68626318626319E-01 0.00000000000000E+00 0.14000000000000E+01
     0.0000  0.68924693924694E-01 0.00000000000000E+00 0.14000000000000E+01
     0.0000  0.69223069223069E-01 0.00000000000000E+00 0.14000000000000E+01
     0.0000  0.69521444521445E-01 0.00000000000000E+00 0.14000000000000E+01
     0.0000  0.69819819819820E-01 0.00000000000000E+00 0.14000000000000E+01
     0.0000  0.70118195118195E-01 0.00000000000000E+00 0.14000000000000E+01
     0.0000  0.70416570416570E-01 0.00000000000000E+00 0.14000000000000E+01
     0.0000  0.70714945714946E-01 0.00000000000000E+00 0.14000000000000E+01
     0.0000  0.71013321013321E-01 0.00000000000000E+00 0.14000000000000E+01
     0.0000  0.71311696311696E-01 0.00000000000000E+00 0.14000000000000E+01
     0.0000  0.71610071610072E-01 0.00000000000000E+00 0.14000000000000E+01
     0.0000  0.71908446908447E-01 0.00000000000000E+00 0.14000000000000E+01
     0.0000  0.72206822206822E-01 0.00000000000000E+00 0.14000000000000E+01
     0.0000  0.72505197505198E-01 0.00000000000000E+00 0.14000000000000E+01
     0.0000  0.72803572803573E-01 0.00000000000000E+00 0.14000000000000E+01
     0.0000  0.73101948101948E-01 0.00000000000000E+00 0.14000000000000E+01
     0.0000  0.73400323400323E-01 0.00000000000000E+00 0.14000000000000E+01
     0.0000  0.73698698698699E-01 0.00000000000000E+00 0.14000000000000E+01
     0.0000  0.73997073997074E-01 0.00000000000000E+00 0.14000000000000E+01
     0.0000  0.74295449295449E-01 0.00000000000000E+00 0.14000000000000E+01
     0.0000  0.74593824593825E-01 0.00000000000000E+00 0.14000000000000E+01
     0.0000  0.74892199892200E-01 0.00000000000000E+00 0.14000000000000E+01
     0.0000  0.75190575190575E-01 0.00000000000000E+00 0.14000000000000E+01
     0.0000  0.75488950488950E-01 0.00000000000000E+00 0.14000000000000E+01
     0.0000  0.75787325787326E-01 0.00000000000000E+00 0.14000000000000E+01
     0.0000  0.76085701085701E-01 0.00000000000000E+00 0.14000000000000E+01
     0.0000  0.76384076384076E-01 0.00000000000000E+00 0.14000000000000E+01
     0.0000  0.76682451682452E-01 0.00000000000000E+00 0.14000000000000E+01
     0.0000  0.76980826980827E-01 0.00000000000000E+00 0.14000000000000E+01
     0.0000  0.77279202279202E-01 0.00000000000000E+00 0.14000000000000E+01
     0.0000  0.77577577577578E-01 0.00000000000000E+00 0.14000000000000E+01
     0.0000  0.77875952875953E-01 0.00000000000000E+00 0.14000000000000E+01
     0.0000  0.78174328174328E-01 0.00000000000000E+00 0.14000000000000E+01
     0.0000  0.78472703472703E-01 0.00000000000000E+00 0.14000000000000E+01
     0.0000  0.78771078771079E-01 0.00000000000000E+00 0.14000000000000E+01
     0.0000  0.79069454069454E-01 0.00000000000000E+00 0.14000000000000E+01
     0.0000  0.79367829367829E-01 0.00000000000000E+00 0.14000000000000E+01
     0.0000  0.79666204666205E-01 0.00000000000000E+00 0.14000000000000E+01
     0.0000  0.79964579964580E-01 0.00000000000000E+00 0.14000000000000E+01
     0.0000  0.80262955262955E-01 0.00000000000000E+00 0.14000000000000E+01
     0.0000  0.80561330561331E-01 0.00000000000000E+00 0.14000000000000E+01
     0.0000  0.80859705859706E-01 0.00000000000000E+00 0.14000000000000E+01
     0.0000  0.81158081158081E-01 0.00000000000000E+00 0.14000000000000E+01
     0.0000  0.81456456456456E-01 0.00000000000000E+00 0.14000000000000E+01
     0.0000  0.81754831754832E-01 0.00000000000000E+00 0.14000000000000E+01
     0.0000  0.82053207053207E-01 0.00000000000000E+00 0.14000000000000E+01
     0.0000  0.82351582351582E-01 0.00000000000000E+00 0.14000000000000E+01
     0.0000  0.82649957649958E-01 0.00000000000000E+00 0.14000000000000E+01
     0.0000  0.82948332948333E-01 0.00000000000000E+00 0.14000000000000E+01
     0.0000  0.83246708246708E-01 0.00000000000000E+00 0.14000000000000E+01
     0.0000  0.83545083545084E-01 0.00000000000000E+00 0.14000000000000E+01
     0.0000  0.83843458843459E-01 0.00000000000000E+00 0.14000000000000E+01
     0.0000  0.84141834141834E-01 0.00000000000000E+00 0.14000000000000E+01
     0.0000  0.84440209440209E-01 0.00000000000000E+00 0.14000000000000E+01
     0.0000  0.84738584738585E-01 0.00000000000000E+00 0.14000000000000E+01
     0.0000  0.85036960036960E-01 0.00000000000000E+00 0.14000000000000E+01
     0.0000  0.85335335335335E-01 0.00000000000000E+00 0.14000000000000E+01
     0.0000  0.85633710633711E-01 0.00000000000000E+00 0.14000000000000E+01
     0.0000  0.85932085932086E-01 0.00000000000000E+00 0.14000000000000E+01
     0.0000  0.86230461230461E-01 0.00000000000000E+00 0.14000000000000E+01
     0.0000  0.86528836528837E-01 0.00000000000000E+00 0.14000000000000E+01
     0.0000  0.86827211827212E-01 0.00000000000000E+00 0.14000000000000E+01
     0.0000  0.87125587125587E-01 0.00000000000000E+00 0.14000000000000E+01
     0.0000  0.87423962423962E-01 0.00000000000000E+00 0.14000000000000E+01
     0.0000  0.87722337722338E-01 0.00000000000000E+00 0.14000000000000E+01
     0.0000  0.88020713020713E-01 0.00000000000000E+00 0.14000000000000E+01
     0.0000  0.88319088319088E-01 0.00000000000000E+00 0.14000000000000E+01
     0.0000  0.88617463617464E-01 0.00000000000000E+00 0.14000000000000E+01
     0.0000  0.88915838915839E-01 0.00000000000000E+00 0.14000000000000E+01
     0.0000  0.89214214214214E-01 0.00000000000000E+00 0.14000000000000E+01
     0.0000  0.89512589512590E-01 0.00000000000000E+00 0.14000000000000E+01
     0.0000  0.89810964810965E-01 0.00000000000000E+00 0.14000000000000E+01
     0.0000  0.90109340109340E-01 0.00000000000000E+00 0.14000000000000E+01
     0.0000  0.90407715407715E-01 0.00000000000000E+00 0.14000000000000E+01
     0.0000  0.90706090706091E-01 0.00000000000000E+00 0.14000000000000E+01
     0.0000  0.91004466004466E-01 0.00000000000000E+00 0.14000000000000E+01
     0.0000  0.91302841302841E-01 0.00000000000000E+00 0.14000000000000E+01
     0.0000  0.91601216601217E-01 0.00000000000000E+00 0.14000000000000E+01
     0.0000  0.91899591899592E-01 0.00000000000000E+00 0.14000000000000E+01
     0.0000  0.92197967197967E-01 0.00000000000000E+00 0.14000000000000E+01
     0.0000  0.92496342496342E-01 0.00000000000000E+00 0.14000000000000E+01
     0.0000  0.92794717794718E-01 0.00000000000000E+00 0.14000000000000E+01
     0.0000  0.93093093093093E-01 0.00000000000000E+00 0.14000000000000E+01
     0.0000  0.93391468391468E-01 0.00000000000000E+00 0.14000000000000E+01
     0.0000  0.93689843689844E-01 0.00000000000000E+00 0.14000000000000E+01
     0.0000  0.93988218988219E-01 0.00000000000000E+00 0.14000000000000E+01
     0.0000  0.94286594286594E-01 0.00000000000000E+00 0.14000000000000E+01
     0.0000  0.94584969584970E-01 0.00000000000000E+00 0.14000000000000E+01
     0.0000  0.94883344883345E-01 0.00000000000000E+00 0.14000000000000E+01
     0.0000  0.95181720181720E-01 0.00000000000000E+00 0.14000000000000E+01
     0.0000  0.95480095480095E-01 0.00000000000000E+00 0.14000000000000E+01
     0.0000  0.95778470778471E-01 0.00000000000000E+00 0.14000000000000E+01
     0.0000  0.96076846076846E-01 0.00000000000000E+00 0.14000000000000E+01
     0.0000  0.96375221375221E-01 0.00000000000000E+00 0.14000000000000E+01
     0.0000  0.96673596673597E-01 0.00000000000000E+00 0.14000000000000E+01
     0.0000  0.96971971971972E-01 0.00000000000000E+00 0.14000000000000E+01
     0.0000  0.97270347270347E-01 0.00000000000000E+00 0.14000000000000E+01
     0.0000  0.97568722568723E-01 0.00000000000000E+00 0.14000000000000E+01
     0.0000  0.97867097867098E-01 0.00000000000000E+00 0.14000000000000E+01
     0.0000  0.98165473165473E-01 0.00000000000000E+00 0.14000000000000E+01
     0.0000  0.98463848463848E-01 0.00000000000000E+00 0.14000000000000E+01
     0.0000  0.98762223762224E-01 0.00000000000000E+00 0.14000000000000E+01
     0.0000  0.99060599060599E-01 0.00000000000000E+00 0.14000000000000E+01
     0.0000  0.99358974358974E-01 0.00000000000000E+00 0.14000000000000E+01
     0.0000  0.99657349657350E-01 0.00000000000000E+00 0.14000000000000E+01
     0.0000  0.99955724955725E-01 0.00000000000000E+00 0.14000000000000E+01
     0.0000  0.10025410025410E+00 0.00000000000000E+00 0.14000000000000E+01
     0.0000  0.10055247555248E+00 0.00000000000000E+00 0.14000000000000E+01
     0.0000  0.10085085085085E+00 0.00000000000000E+00 0.14000000000000E+01
     0.0000  0.10114922614923E+00 0.00000000000000E+00 0.14000000000000E+01
     0.0000  0.10144760144760E+00 0.00000000000000E+00 0.14000000000000E+01
     0.0000  0.10174597674598E+00 0.00000000000000E+00 0.14000000000000E+01
     0.0000  0.10204435204435E+00 0.00000000000000E+00 0.14000000000000E+01
     0.0000  0.10234272734273E+00 0.00000000000000E+00 0.14000000000000E+01
     0.0000  0.10264110264110E+00 0.00000000000000E+00 0.14000000000000E+01
     0.0000  0.10293947793948E+00 0.00000000000000E+00 0.14000000000000E+01
     0.0000  0.10323785323785E+00 0.00000000000000E+00 0.14000000000000E+01
     0.0000  0.10353622853623E+00 0.00000000000000E+00 0.14000000000000E+01
     0.0000  0.10383460383460E+00 0.00000000000000E+00 0.14000000000000E+01
     0.0000  0.10413297913298E+00 0.00000000000000E+00 0.14000000000000E+01
     0.0000  0.10443135443135E+00 0.00000000000000E+00 0.14000000000000E+01
     0.0000  0.10472972972973E+00 0.00000000000000E+00 0.14000000000000E+01
     0.0000  0.10502810502811E+00 0.00000000000000E+00 0.14000000000000E+01
     0.0000  0.10532648032648E+00 0.00000000000000E+00 0.14000000000000E+01
     0.0000  0.10562485562486E+00 0.00000000000000E+00 0.14000000000000E+01
     0.0000  0.10592323092323E+00 0.00000000000000E+00 0.14000000000000E+01
     0.0000  0.10622160622161E+00 0.00000000000000E+00 0.14000000000000E+01
     0.0000  0.10651998151998E+00 0.00000000000000E+00 0.14000000000000E+01
     0.0000  0.10681835681836E+00 0.00000000000000E+00 0.14000000000000E+01
     0.0000  0.10711673211673E+00 0.00000000000000E+00 0.14000000000000E+01
     0.0000  0.10741510741511E+00 0.00000000000000E+00 0.14000000000000E+01
     0.0000  0.10771348271348E+00 0.00000000000000E+00 0.14000000000000E+01
     0.0000  0.10801185801186E+00 0.00000000000000E+00 0.14000000000000E+01
     0.0000  0.10831023331023E+00 0.00000000000000E+00 0.14000000000000E+01
     0.0000  0.10860860860861E+00 0.00000000000000E+00 0.14000000000000E+01
     0.0000  0.10890698390698E+00 0.00000000000000E+00 0.14000000000000E+01
     0.0000  0.10920535920536E+00 0.00000000000000E+00 0.14000000000000E+01
     0.0000  0.10950373450373E+00 0.00000000000000E+00 0.14000000000000E+01
     0.0000  0.10980210980211E+00 0.00000000000000E+00 0.14000000000000E+01
     0.0000  0.11010048510049E+00 0.00000000000000E+00 0.14000000000000E+01
     0.0000  0.11039886039886E+00 0.00000000000000E+00 0.14000000000000E+01
     0.0000  0.11069723569724E+00 0.00000000000000E+00 0.14000000000000E+01
     0.0000  0.11099561099561E+00 0.00000000000000E+00 0.14000000000000E+01
     0.0000  0.11129398629399E+00 0.00000000000000E+00 0.14000000000000E+01
     0.0000  0.11159236159236E+00 0.00000000000000E+00 0.14000000000000E+01
     0.0000  0.11189073689074E+00 0.00000000000000E+00 0.14000000000000E+01
     0.0000  0.11218911218911E+00 0.00000000000000E+00 0.14000000000000E+01
     0.0000  0.11248748748749E+00 0.00000000000000E+00 0.14000000000000E+01
     0.0000  0.11278586278586E+00 0.00000000000000E+00 0.14000000000000E+01
     0.0000  0.11308423808424E+00 0.00000000000000E+00 0.14000000000000E+01
     0.0000  0.11338261338261E+00 0.00000000000000E+00 0.14000000000000E+01
     0.0000  0.11368098868099E+00 0.00000000000000E+00 0.14000000000000E+01
     0.0000  0.11397936397936E+00 0.00000000000000E+00 0.14000000000000E+01
     0.0000  0.11427773927774E+00 0.00000000000000E+00 0.14000000000000E+01
     0.0000  0.11457611457611E+00 0.00000000000000E+00 0.14000000000000E+01
     0.0000  0.11487448987449E+00 0.00000000000000E+00 0.14000000000000E+01
     0.0000  0.11517286517287E+00 0.00000000000000E+00 0.14000000000000E+01
     0.0000  0.11547124047124E+00 0.00000000000000E+00 0.14000000000000E+01
     0.0000  0.11576961576962E+00 0.00000000000000E+00 0.14000000000000E+01
     0.0000  0.11606799106799E+00 0.00000000000000E+00 0.14000000000000E+01
     0.0000  0.11636636636637E+00 0.00000000000000E+00 0.14000000000000E+01
     0.0000  0.11666474166474E+00 0.00000000000000E+00 0.14000000000000E+01
     0.0000  0.11696311696312E+00 0.00000000000000E+00 0.14000000000000E+01