 Title="Shock-Particle Simulation"
 Variables = Xp, Yp, Up, Vp, Tp, Time, Onoff
 Zone T="WENO Step=  101 Time=   200.0000E-03 " I=      10
         3.7239796580        -0.1381562358        37.3529848316        -0.9142037011       101.7116554367         0.2000000000 1
         3.7187739873        -0.1153136121        37.2834879077        -0.7974027330       101.6864718831         0.2000000000 1
         3.7146894170        -0.0922622488        37.2256358974        -0.6761780624       101.6603738239         0.2000000000 1
         3.7117302743        -0.0690195601        37.1795816563        -0.5507587152       101.6336541841         0.2000000000 1
         3.7099041250        -0.0456025891        37.1455262092        -0.4213816260       101.6066359599         0.2000000000 1
         3.4576278547         0.0735560520        34.6107272328         0.9662784999        97.3203242492         0.2000000000 1
         3.4806062009         0.0946931752        34.9446869433         1.0375872005        97.9620881187         0.2000000000 1
         3.5058447461         0.1156780005        35.2804659947         1.1061259597        98.3972245947         0.2000000000 1
         3.5318900471         0.1364786562        35.6252068191         1.1722206612        98.8283690577         0.2000000000 1
         3.5589383074         0.1571720911        35.9816171835         1.2360358949        99.4528737821         0.2000000000 1
