 Title="Shock-Particle Simulation"
 Variables = Xp, Yp, Up, Vp, Tp, Time, Onoff
 Zone T="WENO Step=  151 Time=   300.0000E-03 " I=      10
         7.6951607186        -0.2237964622        41.3378676956        -0.7908658622       136.4680084474         0.3000000000 1
         7.6805028093        -0.1900653700        41.2229076422        -0.6837971832       136.3164320531         0.3000000000 1
         7.6679391793        -0.1555500344        41.1154883656        -0.5706858749       136.1543694708         0.3000000000 1
         7.6574822077        -0.1202819825        41.0147506816        -0.4514189848       135.9778055164         0.3000000000 1
         7.6491692843        -0.0843006984        40.9209530432        -0.3261943680       135.7864487970         0.3000000000 1
         7.2625789813         0.1769844212        40.5745823005         1.0087359428       135.5223952215         0.3000000000 1
         7.3110621916         0.2044162252        40.7456776991         1.0843313380       135.8142277163         0.3000000000 1
         7.3625588188         0.2312592514        40.9269181047         1.1533947334       135.9344477587         0.3000000000 1
         7.4162018887         0.2575534179        41.1232551467         1.2162511086       136.0714248204         0.3000000000 1
         7.4721867461         0.2833708857        41.3336036274         1.2725938160       136.4042355231         0.3000000000 1
