 Title="Shock-Particle Simulation"
 Variables = Xp, Yp, Up, Vp, Tp, Time, Onoff
 Zone T="WENO Step=  200 Time=   400.0000E-03 " I=      10
         8.6581205953        -0.2924038614        45.1670240651        -0.4233825596       167.3804219989         0.4000000000 1
         8.6267900714        -0.2496811413        45.0301275554        -0.3700090936       167.1432668644         0.4000000000 1
         8.6041880769        -0.2047750790        44.9665142943        -0.3030996772       166.9821412419         0.4000000000 1
         8.5851274276        -0.1585541432        44.9253378663        -0.2324686471       166.8069030370         0.4000000000 1
         8.5684875211        -0.1111199414        44.8895807254        -0.1585999013       166.6223575709         0.4000000000 1
         8.1597673080         0.2689929140        44.6031748378         0.6700749254       167.4553588325         0.4000000000 1
         8.2259575729         0.3040588625        44.8087521416         0.7060223191       167.7424457468         0.4000000000 1
         8.2969823040         0.3373363506        45.0435098555         0.7259424675       167.8993494492         0.4000000000 1
         8.3662832072         0.3703146317        45.2072154166         0.7554968851       167.9536871124         0.4000000000 1
         8.4441754390         0.4005956119        45.4497882301         0.7558910239       168.3078940948         0.4000000000 1
