 Title="Shock-Particle Simulation"
 Variables = Xp, Yp, Up, Vp, Tp, Time, Onoff
 Zone T="WENO Step=   49 Time=   100.0000E-03 " I=      10
         0.5968763823        -0.0567386296        21.4262612696        -0.8960819197        40.1807642632         0.1000000000 1
         0.5961639559        -0.0458085389        21.3930790133        -0.8121294583        40.1813169442         0.1000000000 1
         0.5956192432        -0.0348515918        21.3671717964        -0.7260881482        40.1811797955         0.1000000000 1
         0.5952422568        -0.0238675329        21.3485613471        -0.6379599338        40.1804041902         0.1000000000 1
         0.5950331609        -0.0128560843        21.3372777497        -0.5477462157        40.1790351562         0.1000000000 1
         0.5950181950         0.0128390124        21.3370948674         0.5459980761        40.1788777695         0.1000000000 1
         0.5952271896         0.0238502403        21.3483485231         0.6362111854        40.1802524574         0.1000000000 1
         0.5956040870         0.0348338550        21.3669294125         0.7243360018        40.1810332389         0.1000000000 1
         0.5961487160         0.0457901354        21.3928070745         0.8103712125        40.1811751387         0.1000000000 1
         0.5968610573         0.0567193373        21.4259594040         0.8943149577        40.1806268360         0.1000000000 1
